2.024999999999579359e-01 2.222409897372363795e-103
4.162499999999482725e-01 3.007241821692688989e-103
6.299999999999528200e-01 2.782481321933298135e-103
8.437499999999573674e-01 7.330116015779168043e-104
1.057499999999947704e+00 -3.679229020248371995e-103
1.271249999999952252e+00 -1.014149394393108081e-102
1.484999999999956799e+00 -1.684927666443116635e-102
1.698749999999947136e+00 -2.009495237394079584e-102
1.912499999999951683e+00 -1.453829908323346321e-102
2.126249999999956231e+00 5.335769185253055167e-103
2.339999999999946567e+00 4.224221216154146103e-102
2.553749999999951115e+00 9.179690502983521051e-102
2.767499999999955662e+00 1.380015382904182532e-101
2.981249999999945999e+00 1.507982252494728272e-101
3.194999999999950546e+00 8.903264460623304318e-102
3.408749999999955094e+00 -8.759071611457261655e-102
3.622499999999945430e+00 -3.954278078320053455e-101
3.836249999999949978e+00 -7.945087311267774418e-101
4.049999999999954525e+00 -1.155355305723297348e-100
4.263749999999944862e+00 -1.241947215280683005e-100
4.477499999999949409e+00 -7.351531969452334672e-101
4.691249999999953957e+00 6.775680337481263995e-101
4.904999999999944293e+00 3.130944261129330126e-100
5.118749999999948841e+00 6.342013703876354962e-100
5.332499999999953388e+00 9.361677616321105072e-100
5.546249999999943725e+00 1.043721582696314379e-99
5.759999999999948272e+00 7.157831116000082983e-100
5.973749999999952820e+00 -2.931801498659902024e-100
6.187499999999943157e+00 -2.113344897864371915e-99
6.401249999999947704e+00 -4.588379865632620782e-99
6.614999999999952252e+00 -7.091915769928142231e-99
6.828749999999942588e+00 -8.411273398293993190e-99
7.042499999999947136e+00 -6.815248809548744481e-99
7.256249999999951683e+00 -4.351839035268698732e-100
7.469999999999942020e+00 1.195112291311407524e-98
7.683749999999946567e+00 2.976031375416655302e-98
7.897499999999951115e+00 4.930109034574617234e-98
8.111249999999941451e+00 6.282748990244813669e-98
8.324999999999945999e+00 5.870173732866098697e-98
8.538749999999950546e+00 2.353204216610398816e-98
8.752499999999940883e+00 -5.305387944944302540e-98
8.966249999999945430e+00 -1.710247764872132760e-97
9.179999999999949978e+00 -3.112181184016214461e-97
9.393749999999940314e+00 -4.282061634018725469e-97
9.607499999999944862e+00 -4.493629639375136797e-97
9.821249999999949409e+00 -2.856298968298597820e-97
1.003499999999993975e+01 1.414529254194542671e-97
1.024874999999994429e+01 8.556635473095236708e-97
1.046249999999994884e+01 1.771342340572004998e-96
1.067624999999993918e+01 2.644281803802937412e-96
1.088999999999994373e+01 3.054926578417205115e-96
1.110374999999994827e+01 2.456885552503117034e-96
1.131749999999993861e+01 3.200548440525819986e-97
1.153124999999994316e+01 -3.622224010139453547e-96
1.174499999999994770e+01 -9.052082965220195966e-96
1.195874999999993804e+01 -1.475864001211477770e-95
1.217249999999994259e+01 -1.848924764821240404e-95
1.238624999999994714e+01 -1.714818872546993855e-95
1.259999999999993747e+01 -7.517332225115731014e-96
1.281374999999994202e+01 1.242863310944339566e-95
1.302749999999994657e+01 4.175144606518210928e-95
1.324124999999995111e+01 7.477057282022317300e-95
1.345499999999994145e+01 1.000625567219713365e-94
1.366874999999994600e+01 1.012615256317963253e-94
1.388249999999995055e+01 6.063559625915102881e-95
1.409624999999994088e+01 -3.411268391727408455e-95
1.430999999999994543e+01 -1.804979034653184435e-94
1.452374999999994998e+01 -3.516886666545720200e-94
1.473749999999994031e+01 -4.908952840820660572e-94
1.495124999999994486e+01 -5.151712920113204855e-94
1.516499999999994941e+01 -3.338537792094821393e-94
1.537874999999993975e+01 1.159578034338765924e-94
1.559249999999994429e+01 8.205525105408407929e-94
1.580624999999994884e+01 1.640020128636830026e-93
1.601999999999993918e+01 2.280460803795828155e-93
1.623374999999994373e+01 2.317483432566686719e-93
1.644749999999994827e+01 1.298981520706991353e-93
1.666124999999993861e+01 -1.060606957149033755e-93
1.687499999999994316e+01 -4.616088787889349461e-93
1.708874999999994770e+01 -8.528757454896887234e-93
1.730249999999993804e+01 -1.113174227569853956e-92
1.751624999999994259e+01 -1.008911881723814221e-92
1.772999999999994714e+01 -3.006196020719468322e-93
1.794374999999993747e+01 1.144042747072104017e-92
1.815749999999994202e+01 3.197606003435694582e-92
1.837124999999994657e+01 5.321398163762142288e-92
1.858499999999993690e+01 6.488785575553359123e-92
1.879874999999994145e+01 5.280485821216171678e-92
1.901249999999994600e+01 2.474842381309988414e-93
1.922624999999993634e+01 -9.410591745497240558e-92
1.943999999999994088e+01 -2.291179242578713615e-91
1.965374999999994543e+01 -3.693005701943120756e-91
1.986749999999993577e+01 -4.502969251976809969e-91
2.008124999999994031e+01 -3.808268691567784274e-91
2.029499999999994486e+01 -6.282061721835745323e-92
2.050874999999993520e+01 5.686348368867247376e-91
2.072249999999993975e+01 1.487503600297787432e-90
2.093624999999994429e+01 2.512701708361814564e-90
2.114999999999993463e+01 3.261285582873679674e-90
2.136374999999993918e+01 3.153731861503681758e-90
2.157749999999994373e+01 1.510934032899815707e-90
2.179124999999993406e+01 -2.226080906655144726e-90
2.200499999999993861e+01 -8.151489713543725971e-90
2.221874999999994316e+01 -1.547501827175449734e-89
2.243249999999993349e+01 -2.214862200778523353e-89
2.264624999999993804e+01 -2.473587167914047602e-89
2.285999999999994259e+01 -1.877030083993709666e-89
2.307374999999993292e+01 1.663738226289384604e-91
2.328749999999993747e+01 3.453889654995798569e-89
2.350124999999994202e+01 8.228117008662579618e-89
2.371499999999993236e+01 1.340995177262812796e-88
2.392874999999993690e+01 1.716790378797202995e-88
2.414249999999994145e+01 1.682203821203962314e-88
2.435624999999993179e+01 9.286069278965638334e-89
2.456999999999993634e+01 -7.987685979076000126e-89
2.478374999999994088e+01 -3.556355513065538660e-88
2.499749999999993122e+01 -7.028419881252296228e-88
2.521124999999993577e+01 -1.037153640378280757e-87
2.542499999999994031e+01 -1.215293938456891853e-87
2.563874999999993065e+01 -1.047668092244953779e-87
2.585249999999993520e+01 -3.386216863662196906e-88
2.606624999999993975e+01 1.041189359788570115e-87
2.627999999999994429e+01 3.055156539063680188e-87
2.649374999999993463e+01 5.392752578056099700e-87
2.670749999999993918e+01 7.389049407382361388e-87
2.692124999999994373e+01 8.022582928694595402e-87
2.713499999999993406e+01 6.048620625108858849e-87
2.734874999999993861e+01 3.136265828730316417e-88
2.756249999999994316e+01 -9.739918130226176259e-87
2.777624999999993349e+01 -2.343496946433882319e-86
2.798999999999993804e+01 -3.823457514199759981e-86
2.820374999999994259e+01 -4.937439291264877944e-86
2.841749999999993292e+01 -5.007135401613740430e-86
2.863124999999993747e+01 -3.263217803518951417e-86
2.884499999999994202e+01 9.325961512586928879e-87
2.905874999999993236e+01 7.759676363853783151e-86
2.927249999999993690e+01 1.655303620025648533e-85
2.948624999999994145e+01 2.546265925727141704e-85
2.969999999999993179e+01 3.131311645509317885e-85
2.991374999999993634e+01 2.985111503653193943e-85
3.012749999999994088e+01 1.655390283195527322e-85
3.034124999999993122e+01 -1.191595014418882252e-85
3.055499999999993577e+01 -5.570051265814706590e-85
3.076874999999994031e+01 -1.095334011603340728e-84
3.098249999999993065e+01 -1.609830091731843378e-84
3.119624999999993520e+01 -1.900847023647331121e-84
3.140999999999993975e+01 -1.714140816453797777e-84
3.162374999999993008e+01 -7.947620683969775078e-85
3.183749999999993463e+01 1.023178981498243594e-84
3.205124999999993918e+01 3.699081434769738418e-84
3.226499999999992951e+01 6.864060490377917363e-84
3.247874999999993406e+01 9.734736881069671527e-84
3.269249999999993861e+01 1.111588493578703671e-83
3.290624999999992895e+01 9.548455849792933574e-84
3.311999999999993349e+01 3.645092498327117760e-84
3.333374999999993804e+01 -7.382961537592172757e-84
3.354749999999992838e+01 -2.306746837878123441e-83
3.376124999999993292e+01 -4.103667689294022090e-83
3.397499999999993747e+01 -5.661065419909055781e-83
3.418874999999992781e+01 -6.293040455860876004e-83
3.440249999999993236e+01 -5.191338590227518142e-83
3.461624999999993690e+01 -1.622910479048574288e-83
3.482999999999992724e+01 4.773799405135691312e-83
3.504374999999993179e+01 1.363267936916695312e-82
3.525749999999993634e+01 2.352710409297872453e-82
3.547124999999992667e+01 3.178717394617427232e-82
3.568499999999993122e+01 3.462132701095981062e-82
3.589874999999993577e+01 2.768909219362047688e-82
3.611249999999992610e+01 7.210425369487028665e-83
3.632624999999993065e+01 -2.843010140546610713e-82
3.653999999999993520e+01 -7.681626290715515930e-82
3.675374999999992554e+01 -1.298302493904323789e-81
3.696749999999993008e+01 -1.728522614325973236e-81
3.718124999999993463e+01 -1.856193694472350583e-81
3.739499999999992497e+01 -1.454600783838781106e-81
3.760874999999992951e+01 -3.326809790841140251e-82
3.782249999999993406e+01 1.581032147983457940e-81
3.803624999999993861e+01 4.143258256123389671e-81
3.824999999999994316e+01 6.913975211335639272e-81
3.846374999999991928e+01 9.122042725297661220e-81
3.867749999999992383e+01 9.717727328300074127e-81
3.889124999999992838e+01 7.546304188366782099e-81
3.910499999999993292e+01 1.657767436038557815e-81
3.931874999999993747e+01 -8.267438370289806862e-81
3.953249999999994202e+01 -2.144574261610997438e-80
3.974624999999991815e+01 -3.559498734454813639e-80
3.995999999999992269e+01 -4.678733077569856474e-80
4.017374999999992724e+01 -4.974090099314289085e-80
4.038749999999993179e+01 -3.871010229555440935e-80
4.060124999999993634e+01 -9.035743465076141130e-81
4.081499999999994088e+01 4.075809724896578378e-80
4.102874999999991701e+01 1.066707154656045553e-79
4.124249999999992156e+01 1.773456281596079177e-79
4.145624999999992610e+01 2.334309445225150000e-79
4.166999999999993065e+01 2.490801878307041727e-79
4.188374999999993520e+01 1.963298561149717690e-79
4.209749999999993975e+01 5.260320842488858599e-80
4.231124999999991587e+01 -1.892454891173517039e-79
4.252499999999992042e+01 -5.100476762662900491e-79
4.273874999999992497e+01 -8.555029162331904374e-79
4.295249999999992951e+01 -1.133297419599700611e-78
4.316624999999993406e+01 -1.220328096197866759e-78
4.337999999999993861e+01 -9.833781402740344048e-79
4.359374999999991473e+01 -3.142880481970633645e-79
4.380749999999991928e+01 8.232081502553328010e-79
4.402124999999992383e+01 2.342918505796272722e-78
4.423499999999992838e+01 3.995278229370978449e-78
4.444874999999993292e+01 5.353754475705163971e-78
4.466249999999993747e+01 5.847464522783184532e-78
4.487624999999991360e+01 4.855047282549532692e-78
4.508999999999991815e+01 1.864366810623889503e-78
4.530374999999992269e+01 -3.314779537092700539e-78
4.551749999999992724e+01 -1.032054318756115916e-77
4.573124999999993179e+01 -1.805119128065622197e-77
4.594499999999993634e+01 -2.459814879393334683e-77
4.615874999999991246e+01 -2.738381689828420120e-77
4.637249999999991701e+01 -2.357112501630806867e-77
4.658624999999992156e+01 -1.076606178151014462e-77
4.679999999999992610e+01 1.204136027546959172e-77
4.701374999999993065e+01 4.345116779039847003e-77
4.722749999999993520e+01 7.880065134563207196e-77
4.744124999999993975e+01 1.098253666790063293e-76
4.765499999999991587e+01 1.251991766900390821e-76
4.786874999999992042e+01 1.122486964392104631e-76
4.808249999999992497e+01 5.994549383258688094e-77
4.829624999999992951e+01 -3.704042554714250873e-77
4.850999999999993406e+01 -1.738612098048391780e-76
4.872374999999993861e+01 -3.316671234277653533e-76
4.893749999999991473e+01 -4.758763029148396336e-76
4.915124999999991928e+01 -5.580972493214178439e-76
4.936499999999992383e+01 -5.229941912759295542e-76
4.957874999999992838e+01 -3.206113288143527473e-76
4.979249999999993292e+01 7.663524335050045399e-77
5.000624999999993747e+01 6.548178620488102445e-76
5.021999999999991360e+01 1.341593138496435795e-75
5.043374999999991815e+01 1.997449090892613706e-75
5.064749999999992269e+01 2.421623261256985141e-75
5.086124999999992724e+01 2.378262919582713420e-75
5.107499999999993179e+01 1.645411672687974996e-75
5.128874999999993634e+01 8.423815296594276247e-77
5.150249999999991246e+01 -2.281025568105779338e-75
5.171624999999991701e+01 -5.189600001141156579e-75
5.192999999999992156e+01 -8.100797988460068211e-75
5.214374999999992610e+01 -1.020747916736222642e-74
5.235749999999993065e+01 -1.053004567626985211e-74
5.257124999999993520e+01 -8.103734918269370527e-75
5.278499999999991132e+01 -2.252238273201580233e-75
5.299874999999991587e+01 7.086486739783799864e-75
5.321249999999992042e+01 1.904694575121920265e-74
5.342624999999992497e+01 3.162735120929711213e-74
5.363999999999992951e+01 4.169217839391779619e-74
5.385374999999993406e+01 4.528539711442227408e-74
5.406749999999991019e+01 3.831572794736578482e-74
5.428124999999991473e+01 1.760285195982299870e-74
5.449499999999991928e+01 -1.782955905323260161e-74
5.470874999999992383e+01 -6.544803873599311909e-74
5.492249999999992838e+01 -1.182369190830562433e-73
5.513624999999993292e+01 -1.644760577047253677e-73
5.534999999999990905e+01 -1.886765188142412079e-73
5.556374999999991360e+01 -1.739598246373254996e-73
5.577749999999991815e+01 -1.059121260707834232e-73
5.599124999999992269e+01 2.243373184696054520e-74
5.620499999999992724e+01 2.052932450284293231e-73
5.641874999999993179e+01 4.197594428626448818e-73
5.663249999999990791e+01 6.239473642369839265e-73
5.684624999999991246e+01 7.592883643311044354e-73
5.705999999999991701e+01 7.582567552970826007e-73
5.727374999999992156e+01 5.579655504439180817e-73
5.748749999999992610e+01 1.187304776781627794e-73
5.770124999999993065e+01 -5.549973267636122281e-73
5.791499999999990678e+01 -1.395707605092239079e-72
5.812874999999991132e+01 -2.261725646309081599e-72
5.834249999999991587e+01 -2.940298208648485650e-72
5.855624999999992042e+01 -3.170413207330712309e-72
5.876999999999992497e+01 -2.688275513639679615e-72
5.898374999999992951e+01 -1.293841800473509422e-72
5.919749999999990564e+01 1.069273462725146062e-72
5.941124999999991019e+01 4.235002216151525569e-72
5.962499999999991473e+01 7.757694128017034926e-72
5.983874999999991928e+01 1.090072123743068793e-71
6.005249999999992383e+01 1.269383254048316976e-71
6.026624999999992838e+01 1.207496866352933917e-71
6.047999999999990450e+01 8.117829486543510131e-72
6.069374999999990905e+01 3.255188823308623976e-73
6.090749999999991360e+01 -1.105450027732053616e-71
6.112124999999991815e+01 -2.476363790368543724e-71
6.133499999999992269e+01 -3.840116980716526499e-71
6.154874999999992724e+01 -4.852068233060257919e-71
6.176249999999993179e+01 -5.102885522433106818e-71
6.197624999999990791e+01 -4.191899221390293724e-71
6.218999999999991246e+01 -1.830308619677347987e-71
6.240374999999991701e+01 2.038284759547084449e-71
6.261749999999992156e+01 7.122182951168076457e-71
6.283124999999992610e+01 1.270123779517349560e-70
6.304499999999993065e+01 1.761679287125590569e-70
6.325874999999990678e+01 2.036472636826611006e-70
6.347249999999991132e+01 1.931337281088725363e-70
6.368624999999991587e+01 1.304710366589695881e-70
6.389999999999992042e+01 8.062183113103159036e-72
6.411374999999992497e+01 -1.704208351932481880e-70
6.432749999999992951e+01 -3.860233565338910345e-70
6.454124999999990564e+01 -6.024610176778442151e-70
6.475499999999991019e+01 -7.673811235932372525e-70
6.496874999999991473e+01 -8.180543600711272672e-70
6.518249999999991928e+01 -6.920367153903342295e-70
6.539624999999992383e+01 -3.423818011058337749e-70
6.560999999999992838e+01 2.442860398156546943e-70
6.582374999999990450e+01 1.029937964660055184e-69
6.603749999999990905e+01 1.911922955962391767e-69
6.625124999999991360e+01 2.719525883662658633e-69
6.646499999999991815e+01 3.225353305942613506e-69
6.667874999999992269e+01 3.175244512435908201e-69
6.689249999999992724e+01 2.337589049304598221e-69
6.710624999999990337e+01 5.686914593641705903e-70
6.731999999999990791e+01 -2.114451217477443599e-69
6.753374999999991246e+01 -5.468101836015319513e-69
6.774749999999991701e+01 -8.981146030497103492e-69
6.796124999999992156e+01 -1.188061830966264274e-68
6.817499999999992610e+01 -1.320218787355193126e-68
6.838874999999990223e+01 -1.193712619245626320e-68
6.860249999999990678e+01 -7.254092013584902017e-69
6.881624999999991132e+01 1.224480785962233388e-69
6.902999999999991587e+01 1.313346011033931986e-68
6.924374999999992042e+01 2.712702983691591679e-68
6.945749999999992497e+01 4.077077615671113273e-68
6.967124999999990109e+01 5.064664122270854416e-68
6.988499999999990564e+01 5.273903862112846856e-68
7.009874999999991019e+01 4.313322159187384670e-68
7.031249999999991473e+01 1.899596865799855802e-68
7.052624999999991928e+01 -2.027210443650418874e-68
7.073999999999992383e+01 -7.191313884052890779e-68
7.095374999999989996e+01 -1.289994388566798158e-67
7.116749999999990450e+01 -1.802631903372362507e-67
7.138124999999990905e+01 -2.108917925295104914e-67
7.159499999999991360e+01 -2.045224861885172356e-67
7.180874999999991815e+01 -1.464844694038319428e-67
7.202249999999992269e+01 -2.805765268453798669e-68
7.223624999999989882e+01 1.488293557279088071e-67
7.244999999999990337e+01 3.673995457186955573e-67
7.266374999999990791e+01 5.935559879738633002e-67
7.287749999999991246e+01 7.764922329323597414e-67
7.309124999999991701e+01 8.535890259849469388e-67
7.330499999999992156e+01 7.602948612988748900e-67
7.351874999999989768e+01 4.447888901606927719e-67
7.373249999999990223e+01 -1.140206122589609105e-67
7.394624999999990678e+01 -8.880499811023519981e-67
7.415999999999991132e+01 -1.785405516167583510e-66
7.437374999999991587e+01 -2.644757473235853106e-66
7.458749999999992042e+01 -3.244004215194799913e-66
7.480124999999992497e+01 -3.327345221548550176e-66
7.501499999999990109e+01 -2.652209891794924323e-66
7.522874999999990564e+01 -1.053301980681574908e-66
7.544249999999991019e+01 1.484320701112830785e-66
7.565624999999991473e+01 4.756902102095826045e-66
7.586999999999991928e+01 8.296952463238908616e-66
7.608374999999992383e+01 1.137245102340810764e-65
7.629749999999989996e+01 1.304949298484184693e-65
7.651124999999990450e+01 1.233044477198017603e-65
7.672499999999990905e+01 8.366523269532534558e-66
7.693874999999991360e+01 7.251928540322607414e-67
7.715249999999991815e+01 -1.032889883043337463e-65
7.736624999999992269e+01 -2.360160170251976269e-65
7.757999999999989882e+01 -3.686235630135257978e-65
7.779374999999990337e+01 -4.694166911736339088e-65
7.800749999999990791e+01 -5.009582489352783203e-65
7.822124999999991246e+01 -4.266347257187428232e-65
7.843499999999991701e+01 -2.197838888266788029e-65
7.864874999999992156e+01 1.257432542995164433e-65
7.886249999999989768e+01 5.855336454886696156e-65
7.907624999999990223e+01 1.097714434198942643e-64
7.928999999999990678e+01 1.562182643647951421e-64
7.950374999999991132e+01 1.848695740101207371e-64
7.971749999999991587e+01 1.815549815480367820e-64
7.993124999999992042e+01 1.338729403301137830e-64
8.014499999999989654e+01 3.488366284950555031e-65
8.035874999999990109e+01 -1.129879068541771873e-64
8.057249999999990564e+01 -2.946909286838392327e-64
8.078624999999991019e+01 -4.809755465434815949e-64
8.099999999999991473e+01 -6.295749683092756020e-64
8.121374999999991928e+01 -6.899815106519710393e-64
8.142749999999989541e+01 -6.121315622964170422e-64
8.164124999999989996e+01 -3.585021496536891899e-64
8.185499999999990450e+01 8.189910292926517348e-65
8.206874999999990905e+01 6.802356465451646863e-64
8.228249999999991360e+01 1.358693776323674083e-63
8.249624999999991815e+01 1.989334502889494554e-63
8.270999999999989427e+01 2.404417925809689528e-63
8.292374999999989882e+01 2.420309950133790830e-63
8.313749999999990337e+01 1.874670145270421181e-63
8.335124999999990791e+01 6.733245475549879650e-64
8.356499999999991246e+01 -1.160508800239728040e-63
8.377874999999991701e+01 -3.445426824854501518e-63
8.399249999999989313e+01 -5.822495789446702411e-63
8.420624999999989768e+01 -7.770359481602536126e-63
8.441999999999990223e+01 -8.664688172262035262e-63
8.463374999999990678e+01 -7.885159171438916480e-63
8.484749999999991132e+01 -4.963099197425360648e-63
8.506124999999991587e+01 2.494049258814718929e-64
8.527499999999989200e+01 7.420638283469249829e-63
8.548874999999989654e+01 1.563214229533130251e-62
8.570249999999990109e+01 2.336855985510621354e-62
8.591624999999990564e+01 2.864402965237019224e-62
8.612999999999991019e+01 2.928755714120803077e-62
8.634374999999991473e+01 2.338077089621742125e-62
8.655749999999989086e+01 9.802985197094050607e-63
8.677124999999989541e+01 -1.120392073321263042e-62
8.698499999999989996e+01 -3.757605617072603561e-62
8.719874999999990450e+01 -6.522116797830849700e-62
8.741249999999990905e+01 -8.820904754280184405e-62
8.762624999999991360e+01 -9.946299343945328434e-62
8.783999999999991815e+01 -9.197798508488348040e-62
8.805374999999989427e+01 -6.047722190866463068e-62
8.826749999999989882e+01 -3.283054664841282530e-63
8.848124999999990337e+01 7.595500089751064223e-62
8.869499999999990791e+01 1.671313155966437400e-61
8.890874999999991246e+01 2.536388142394029146e-61
8.912249999999991701e+01 3.138172230463682417e-61
8.933624999999989313e+01 3.241070197594623857e-61
8.954999999999989768e+01 2.638013878220960872e-61
8.976374999999990223e+01 1.208770245612423351e-61
8.997749999999990678e+01 -1.020555863165281225e-61
9.019124999999991132e+01 -3.830185082651775359e-61
9.040499999999991587e+01 -6.786876232874476542e-61
9.061874999999989200e+01 -9.266249245961667926e-61
9.083249999999989654e+01 -1.052727845744183308e-60
9.104624999999990109e+01 -9.840562640841586969e-61
9.125999999999990564e+01 -6.660118076235059176e-61
9.147374999999991019e+01 -8.147083361102034984e-62
9.168749999999991473e+01 7.318365941613168047e-61
9.190124999999989086e+01 1.670328325826944849e-60
9.211499999999989541e+01 2.564756743310518558e-60
9.232874999999989996e+01 3.195517869804861995e-60
9.254249999999990450e+01 3.324939666572238733e-60
9.275624999999990905e+01 2.745163072772141107e-60
9.296999999999991360e+01 1.336161588585803572e-60
9.318374999999988972e+01 -8.758011385013211210e-61
9.339749999999989427e+01 -3.672488180943952718e-60
9.361124999999989882e+01 -6.625707831145391923e-60
9.382499999999990337e+01 -9.120858218790450913e-60
9.403874999999990791e+01 -1.043117375462554616e-59
9.425249999999991246e+01 -9.843485119399999855e-60
9.446624999999988859e+01 -6.824847606956350011e-60
9.467999999999989313e+01 -1.206386820193289350e-60
9.489374999999989768e+01 6.651414143379263892e-60
9.510749999999990223e+01 1.575594068786236508e-59
9.532124999999990678e+01 2.448715408119494337e-59
9.553499999999991132e+01 3.074590347847501321e-59
9.574874999999988745e+01 3.226188763092152828e-59
9.596249999999989200e+01 2.704670414547445832e-59
9.617624999999989654e+01 1.393961941459345530e-59
9.638999999999990109e+01 -6.845214953746943302e-60
9.660374999999990564e+01 -3.329296715692515391e-59
9.681749999999991019e+01 -6.142127987507091092e-59
9.703124999999988631e+01 -8.549857072162169810e-59
9.724499999999989086e+01 -9.873008447928287945e-59
9.745874999999989541e+01 -9.441733412701634892e-59
9.767249999999989996e+01 -6.749222543196898406e-59
9.788624999999990450e+01 -1.620961958294357743e-59
9.809999999999990905e+01 5.632674813273482129e-59
9.831374999999988518e+01 1.412029026261320018e-58
9.852749999999988972e+01 2.237041403852422737e-58
9.874124999999989427e+01 2.846222306370558713e-58
9.895499999999989882e+01 3.030079349627330686e-58
9.916874999999990337e+01 2.602441764693107791e-58
9.938249999999990791e+01 1.449792653678568677e-58
9.959624999999988404e+01 -4.188650024162041995e-59
9.980999999999988859e+01 -2.832502879494165232e-58
1.000237499999998931e+02 -5.441172166291810756e-58
1.002374999999998977e+02 -7.733061523156485032e-58
1.004512499999999022e+02 -9.093130081513216663e-58
1.006649999999999068e+02 -8.904291263254601766e-58
1.008787499999998829e+02 -6.683049702265847237e-58
1.010924999999998875e+02 -2.231190722193081736e-58
1.013062499999998920e+02 4.224546347614454917e-58
1.015199999999998965e+02 1.193957509453081296e-57
1.017337499999999011e+02 1.964138219377721754e-57
1.019474999999999056e+02 2.563206836566080948e-57
1.021612499999999102e+02 2.801849515915016538e-57
1.023749999999998863e+02 2.506202269431199013e-57
1.025887499999998909e+02 1.561099275490079874e-57
1.028024999999998954e+02 -4.511614782710010351e-59
1.030162499999999000e+02 -2.183487641292092294e-57
1.032299999999999045e+02 -4.565695599971463683e-57
1.034437499999999091e+02 -6.753817014879673066e-57
1.036574999999998852e+02 -8.205890900296540387e-57
1.038712499999998897e+02 -8.359201521707617659e-57
1.040849999999998943e+02 -6.745631857016923944e-57
1.042987499999998988e+02 -3.124633493580034753e-57
1.045124999999999034e+02 2.389192412580311516e-57
1.047262499999999079e+02 9.233273669488299563e-57
1.049399999999998840e+02 1.637047050345065196e-56
1.051537499999998886e+02 2.235615833195594607e-56
1.053674999999998931e+02 2.551521510792004825e-56
1.055812499999998977e+02 2.422677368330434456e-56
1.057949999999999022e+02 1.729074123921463413e-56
1.060087499999999068e+02 4.324084116184150211e-57
1.062224999999998829e+02 -1.388839051162199428e-56
1.064362499999998875e+02 -3.517869417448026940e-56
1.066499999999998920e+02 -5.600586986968605480e-56
1.068637499999998965e+02 -7.176285982401113720e-56
1.070774999999999011e+02 -7.741084046848908641e-56
1.072912499999999056e+02 -6.841203568291903247e-56
1.075049999999998818e+02 -4.185918594950711456e-56
1.077187499999998863e+02 2.374707889689330005e-57
1.079324999999998909e+02 6.070376935460929582e-56
1.081462499999998954e+02 1.253814118061085211e-55
1.083599999999999000e+02 1.847882285750545632e-55
1.085737499999999045e+02 2.246315002552846602e-55
1.087874999999998806e+02 2.300961421801600824e-55
1.090012499999998852e+02 1.887991614941310275e-55
1.092149999999998897e+02 9.418340147312985782e-56
1.094287499999998943e+02 -5.122205740292260247e-56
1.096424999999998988e+02 -2.334017848344697412e-55
1.098562499999999034e+02 -4.260919673822941189e-55
1.100699999999998795e+02 -5.923384208575922061e-55
1.102837499999998840e+02 -6.887880408443106984e-55
1.104974999999998886e+02 -6.726875672758519788e-55
1.107112499999998931e+02 -5.109910593366839264e-55
1.109249999999998977e+02 -1.903495072902721355e-55
1.111387499999999022e+02 2.738143406230058948e-55
1.113524999999998784e+02 8.313192686126638318e-55
1.115662499999998829e+02 1.396544344016522426e-54
1.117799999999998875e+02 1.854869444575621816e-54
1.119937499999998920e+02 2.077152218825473288e-54
1.122074999999998965e+02 1.941784305182748257e-54
1.124212499999999011e+02 1.362164331909035969e-54
1.126349999999998772e+02 3.156338865435552881e-55
1.128487499999998818e+02 -1.131613379604867826e-54
1.130624999999998863e+02 -2.810026038276574352e-54
1.132762499999998909e+02 -4.448824290421000734e-54
1.134899999999998954e+02 -5.699531367175337929e-54
1.137037499999999000e+02 -6.182781379454190236e-54
1.139174999999998761e+02 -5.556108706415145564e-54
1.141312499999998806e+02 -3.595434416384040746e-54
1.143449999999998852e+02 -2.779184540556790457e-55
1.145587499999998897e+02 4.150249928696672895e-54
1.147724999999998943e+02 9.139574458196074568e-54
1.149862499999998988e+02 1.385384378239095673e-53
1.151999999999998749e+02 1.725000619747763558e-53
1.154137499999998795e+02 1.822476890925020815e-53
1.156274999999998840e+02 1.581894501412947333e-53
1.158412499999998886e+02 9.456156417830144517e-54
1.160549999999998931e+02 -8.216179452387742975e-55
1.162687499999998977e+02 -1.417005382205306167e-53
1.164824999999999022e+02 -2.886296023087963031e-53
1.166962499999998784e+02 -4.236539339589579262e-53
1.169099999999998829e+02 -5.159173567516175797e-53
1.171237499999998875e+02 -5.335392559079291763e-53
1.173374999999998920e+02 -4.496856706651603497e-53
1.175512499999998965e+02 -2.495032208664066526e-53
1.177649999999999011e+02 6.320437742472264830e-54
1.179787499999998772e+02 4.609685365808994348e-53
1.181924999999998818e+02 8.908268006058317042e-53
1.184062499999998863e+02 1.277011106726567372e-52
1.186199999999998909e+02 1.529002160048753646e-52
1.188337499999998954e+02 1.554991870713496369e-52
1.190474999999999000e+02 1.279735425063051773e-52
1.192612499999998761e+02 6.645938652508795861e-53
1.194749999999998806e+02 -2.735359067491718012e-53
1.196887499999998852e+02 -1.448492689336097171e-52
1.199024999999998897e+02 -2.700629600006849958e-52
1.201162499999998943e+02 -3.805837423231464489e-52
1.203299999999998988e+02 -4.500072889989426252e-52
1.205437499999998749e+02 -4.519280835790412154e-52
1.207574999999998795e+02 -3.651530497616673724e-52
1.209712499999998840e+02 -1.794812702538198229e-52
1.211849999999998886e+02 9.891627211906684715e-53
1.213987499999998931e+02 4.436980354393666731e-52
1.216124999999998977e+02 8.073635997315106600e-52
1.218262499999998738e+02 1.124126264630374087e-51
1.220399999999998784e+02 1.317258021425113694e-51
1.222537499999998829e+02 1.310826065156775016e-51
1.224674999999998875e+02 1.044853585498273399e-51
1.226812499999998920e+02 4.919719042504357879e-52
1.228949999999998965e+02 -3.272487442633853529e-52
1.231087499999998727e+02 -1.333698074272041511e-51
1.233224999999998772e+02 -2.387371226941427202e-51
1.235362499999998818e+02 -3.296230824976632528e-51
1.237499999999998863e+02 -3.837961141482545438e-51
1.239637499999998909e+02 -3.794274789740306841e-51
1.241774999999998954e+02 -2.994872214490672274e-51
1.243912499999998715e+02 -1.365384684505015187e-51
1.246049999999998761e+02 1.028869335789965913e-51
1.248187499999998806e+02 3.953145965448143700e-51
1.250324999999998852e+02 6.997629801066755889e-51
1.252462499999998897e+02 9.604299523044587271e-51
1.254599999999998943e+02 1.113092187569371827e-50
1.256737499999998704e+02 1.095093134033798250e-50
1.258874999999998749e+02 8.580559537370461159e-51
1.261012499999998795e+02 3.816632327534322688e-51
1.263149999999998840e+02 -3.138659227044134902e-51
1.265287499999998886e+02 -1.159434089770333235e-50
1.267424999999998931e+02 -2.035741332067991971e-50