2.024999999999579359e-01 1.630859968835863060e-109
4.162499999999482725e-01 2.538822039943432411e-109
6.299999999999528200e-01 3.268131851747837194e-109
8.437499999999573674e-01 3.320853765113909806e-109
1.057499999999947704e+00 1.991071977612958054e-109
1.271249999999952252e+00 -1.537157989204599281e-109
1.484999999999956799e+00 -7.946523743869640845e-109
1.698749999999947136e+00 -1.735931548968383681e-108
1.912499999999951683e+00 -2.872963779139728451e-108
2.126249999999956231e+00 -3.913939252304665661e-108
2.339999999999946567e+00 -4.320642907182455081e-108
2.553749999999951115e+00 -3.296794934481176066e-108
2.767499999999955662e+00 1.249263882360004603e-109
2.981249999999945999e+00 6.838765990808472297e-108
3.194999999999950546e+00 1.721697691356780870e-107
3.408749999999955094e+00 3.044966558721294599e-107
3.622499999999945430e+00 4.375022978660560585e-107
3.836249999999949978e+00 5.163296216225303935e-107
4.049999999999954525e+00 4.563453529739488021e-107
4.263749999999944862e+00 1.501525224927364992e-107
4.477499999999949409e+00 -5.093074667302043145e-107
4.691249999999953957e+00 -1.584097111840668409e-106
4.904999999999944293e+00 -3.023473262290681461e-106
5.118749999999948841e+00 -4.579442300085099328e-106
5.332499999999953388e+00 -5.725085358213568441e-106
5.546249999999943725e+00 -5.611764162264529882e-106
5.759999999999948272e+00 -3.118431278801485642e-106
5.973749999999952820e+00 2.942872243341796519e-106
6.187499999999943157e+00 1.340674301625506316e-105
6.401249999999947704e+00 2.809509682871586712e-105
6.614999999999952252e+00 4.496954860829101371e-105
6.828749999999942588e+00 5.926782130413936542e-105
7.042499999999947136e+00 6.295690949970136228e-105
7.256249999999951683e+00 4.500463635001705692e-105
7.469999999999942020e+00 -6.911658731314157308e-106
7.683749999999946567e+00 -1.026676142389229701e-104
7.897499999999951115e+00 -2.436201939152367471e-104
8.111249999999941451e+00 -4.145539917459524563e-104
8.324999999999945999e+00 -5.750871024833651017e-104
8.538749999999950546e+00 -6.534422508620212840e-104
8.752499999999940883e+00 -5.470731022970992307e-104
8.966249999999945430e+00 -1.358213608323046563e-104
9.179999999999949978e+00 6.867358131959536873e-104
9.393749999999940314e+00 1.960319976940911555e-103
9.607499999999944862e+00 3.585391686175069238e-103
9.821249999999949409e+00 5.242296117379187173e-103
1.003499999999993975e+01 6.326136643110881551e-103
1.024874999999994429e+01 5.935559207280966308e-103
1.046249999999994884e+01 2.964997359038720056e-103
1.067624999999993918e+01 -3.648151432423861617e-103
1.088999999999994373e+01 -1.448599512027975178e-102
1.110374999999994827e+01 -2.902953055377105585e-102
1.131749999999993861e+01 -4.493721223647451111e-102
1.153124999999994316e+01 -5.741037640666779184e-102
1.174499999999994770e+01 -5.895409899714052928e-102
1.195874999999993804e+01 -3.994579547471677396e-102
1.217249999999994259e+01 9.542089849922781744e-103
1.238624999999994714e+01 9.632317603244045511e-102
1.259999999999993747e+01 2.190542910694985069e-101
1.281374999999994202e+01 3.621168650140639256e-101
1.302749999999994657e+01 4.898038419324902404e-101
1.324124999999995111e+01 5.431814572597331868e-101
1.345499999999994145e+01 4.428993299787468751e-101
1.366874999999994600e+01 1.016473110396133584e-101
1.388249999999995055e+01 -5.506254107844214634e-101
1.409624999999994088e+01 -1.527778586002477901e-100
1.430999999999994543e+01 -2.738080952605867256e-100
1.452374999999994998e+01 -3.933873013561724198e-100
1.473749999999994031e+01 -4.677562054480890042e-100
1.495124999999994486e+01 -4.348761207358401688e-100
1.516499999999994941e+01 -2.221895035563158678e-100
1.537874999999993975e+01 2.358841178951653759e-100
1.559249999999994429e+01 9.694084437909659102e-100
1.580624999999994884e+01 1.934930736372944203e-99
1.601999999999993918e+01 2.974135847476736365e-99
1.623374999999994373e+01 3.781081047475104004e-99
1.644749999999994827e+01 3.895968104890959232e-99
1.666124999999993861e+01 2.747714826681595287e-99
1.687499999999994316e+01 -2.326127276239440322e-100
1.708874999999994770e+01 -5.413439744321502024e-99
1.730249999999993804e+01 -1.268413601843478082e-98
1.751624999999994259e+01 -2.113217805608435997e-98
1.772999999999994714e+01 -2.875381894005589137e-98
1.794374999999993747e+01 -3.232227662532792963e-98
1.815749999999994202e+01 -2.757533836673220034e-98
1.837124999999994657e+01 -9.894826301749038604e-99
1.858499999999993690e+01 2.438998705054888858e-98
1.879874999999994145e+01 7.605759693663537972e-98
1.901249999999994600e+01 1.405949188127644546e-97
1.922624999999993634e+01 2.058199426637099984e-97
1.943999999999994088e+01 2.503425757892893761e-97
1.965374999999994543e+01 2.439911790254340713e-97
1.986749999999993577e+01 1.514905209624632699e-97
2.008124999999994031e+01 -5.948101149168487059e-98
2.029499999999994486e+01 -4.053751132203916869e-97
2.050874999999993520e+01 -8.697912948323918870e-97
2.072249999999993975e+01 -1.385142612047640363e-96
2.093624999999994429e+01 -1.818076118576183736e-96
2.114999999999993463e+01 -1.966162178396822935e-96
2.136374999999993918e+01 -1.575002807020839141e-96
2.157749999999994373e+01 -3.846870815618247066e-97
2.179124999999993406e+01 1.788799269053489461e-96
2.200499999999993861e+01 4.939116446586641524e-96
2.221874999999994316e+01 8.736161514029247144e-96
2.243249999999993349e+01 1.240395774939760959e-95
2.264624999999993804e+01 1.465769957794391865e-95
2.285999999999994259e+01 1.376212864469066624e-95
2.307374999999993292e+01 7.777471423051889560e-96
2.328749999999993747e+01 -4.955520592278659637e-96
2.350124999999994202e+01 -2.508158301884257555e-95
2.371499999999993236e+01 -5.131205902685259678e-95
2.392874999999993690e+01 -7.948961254000026325e-95
2.414249999999994145e+01 -1.019272201049074055e-94
2.435624999999993179e+01 -1.074247845583517962e-94
2.456999999999993634e+01 -8.242680105419140160e-95
2.478374999999994088e+01 -1.373646139528132781e-95
2.499749999999993122e+01 1.070132829058068563e-94
2.521124999999993577e+01 2.773578303223014203e-94
2.542499999999994031e+01 4.773401341697212596e-94
2.563874999999993065e+01 6.638696255034442994e-94
2.585249999999993520e+01 7.685975175349262422e-94
2.606624999999993975e+01 7.023799098074407778e-94
2.627999999999994429e+01 3.693827856236462212e-94
2.649374999999993463e+01 -3.071208142782908711e-94
2.670749999999993918e+01 -1.347545595337049521e-93
2.692124999999994373e+01 -2.671479834791324272e-93
2.713499999999993406e+01 -4.055034056947787505e-93
2.734874999999993861e+01 -5.104782519436499476e-93
2.756249999999994316e+01 -5.267628681030789117e-93
2.777624999999993349e+01 -3.897472954587318580e-93
2.798999999999993804e+01 -3.955359127360749586e-94
2.820374999999994259e+01 5.570823906372824436e-93
2.841749999999993292e+01 1.378744174605829968e-92
2.863124999999993747e+01 2.319788348915679100e-92
2.884499999999994202e+01 3.167586543533939927e-92
2.905874999999993236e+01 3.598127294452778009e-92
2.927249999999993690e+01 3.203387766169622597e-92
2.948624999999994145e+01 1.562726308952079480e-92
2.969999999999993179e+01 -1.635194640428081816e-92
2.991374999999993634e+01 -6.424943904998402332e-92
3.012749999999994088e+01 -1.237368794050615835e-91
3.034124999999993122e+01 -1.841140357892507658e-91
3.055499999999993577e+01 -2.274785125174076867e-91
3.076874999999994031e+01 -2.295773376695448836e-91
3.098249999999993065e+01 -1.631569207325476108e-91
3.119624999999993520e+01 -4.379213915148561169e-93
3.140999999999993975e+01 2.577102151298157456e-91
3.162374999999993008e+01 6.096234921905658738e-91
3.183749999999993463e+01 1.001992731251644354e-90
3.205124999999993918e+01 1.341824624012463014e-90
3.226499999999992951e+01 1.493138489441128404e-90
3.247874999999993406e+01 1.291065134441246519e-90
3.269249999999993861e+01 5.735600500816498353e-91
3.290624999999992895e+01 -7.678822768921548415e-91
3.311999999999993349e+01 -2.722034877443627239e-90
3.333374999999993804e+01 -5.086667606092652170e-90
3.354749999999992838e+01 -7.410575439427154122e-90
3.376124999999993292e+01 -8.974601445595322839e-90
3.397499999999993747e+01 -8.841393976651281170e-90
3.418874999999992781e+01 -6.001179000323737120e-90
3.440249999999993236e+01 3.713540269984775889e-91
3.461624999999993690e+01 1.055809679270584131e-89
3.482999999999992724e+01 2.388162275867861279e-89
3.504374999999993179e+01 3.832185905164804082e-89
3.525749999999993634e+01 5.029923004409966268e-89
3.547124999999992667e+01 5.478925765520234110e-89
3.568499999999993122e+01 4.593412893588711390e-89
3.589874999999993577e+01 1.826830459712352783e-89
3.611249999999992610e+01 -3.143687603435225123e-89
3.632624999999993065e+01 -1.018848950555502908e-88
3.653999999999993520e+01 -1.849325741702515389e-88
3.675374999999992554e+01 -2.638988191130035495e-88
3.696749999999993008e+01 -3.133731744000945645e-88
3.718124999999993463e+01 -3.014649453623131392e-88
3.739499999999992497e+01 -1.952698736743248014e-88
3.760874999999992951e+01 3.015619070866663623e-89
3.782249999999993406e+01 3.798835663926431275e-88
3.803624999999993861e+01 8.260099123895195016e-88
3.824999999999994316e+01 1.296494867292514556e-87
3.846374999999991928e+01 1.670288822223251195e-87
3.867749999999992383e+01 1.783804956364787603e-87
3.889124999999992838e+01 1.453400774325569205e-87
3.910499999999993292e+01 5.165801936460512590e-88
3.931874999999993747e+01 -1.109228944947006788e-87
3.953249999999994202e+01 -3.357187543313772815e-87
3.974624999999991815e+01 -5.944700849569799396e-87
3.995999999999992269e+01 -8.331022680573011962e-87
4.017374999999992724e+01 -9.724510139520399486e-87
4.038749999999993179e+01 -9.165506649357026742e-87
4.060124999999993634e+01 -5.703819602373300653e-87
4.081499999999994088e+01 1.326600829139900616e-87
4.102874999999991701e+01 1.195940880735524404e-86
4.124249999999992156e+01 2.523176085333531935e-86
4.145624999999992610e+01 3.889868392617508474e-86
4.166999999999993065e+01 4.935028386499114002e-86
4.188374999999993520e+01 5.186752814543747642e-86
4.209749999999993975e+01 4.133152502885746470e-86
4.231124999999991587e+01 1.343650646414228063e-86
4.252499999999992042e+01 -3.365757346037381510e-86
4.273874999999992497e+01 -9.745552558954899567e-86
4.295249999999992951e+01 -1.694454941410523600e-85
4.316624999999993406e+01 -2.341781088941454607e-85
4.337999999999993861e+01 -2.697763942125759317e-85
4.359374999999991473e+01 -2.505094281607102033e-85
4.380749999999991928e+01 -1.518286834998534011e-85
4.402124999999992383e+01 4.220499806102749437e-86
4.423499999999992838e+01 3.298788587531107248e-85
4.444874999999993292e+01 6.828079161641742858e-85
4.466249999999993747e+01 1.039442016914651622e-84
4.487624999999991360e+01 1.304238722962780250e-84
4.508999999999991815e+01 1.355740568316804210e-84
4.530374999999992269e+01 1.066053245632102759e-84
4.551749999999992724e+01 3.323998384442617118e-85
4.573124999999993179e+01 -8.815376685281018308e-85
4.594499999999993634e+01 -2.500664916796561797e-84
4.615874999999991246e+01 -4.300305613321949197e-84
4.637249999999991701e+01 -5.888780155953966857e-84
4.658624999999992156e+01 -6.726295679417331525e-84
4.679999999999992610e+01 -6.193883761282470677e-84
4.701374999999993065e+01 -3.719602009720346204e-84
4.722749999999993520e+01 1.042630135540842171e-84
4.744124999999993975e+01 8.002863841783432498e-84
4.765499999999991587e+01 1.643435233075906764e-83
4.786874999999992042e+01 2.484121852754115521e-83
4.808249999999992497e+01 3.096523893671321819e-83
4.829624999999992951e+01 3.200086482068412256e-83
4.850999999999993406e+01 2.506658208183267394e-83
4.872374999999993861e+01 7.936091709190640350e-84
4.893749999999991473e+01 -2.003525983741234443e-83
4.915124999999991928e+01 -5.693827380232167506e-83
4.936499999999992383e+01 -9.752872295565809261e-83
4.957874999999992838e+01 -1.329415146079512926e-82
4.979249999999993292e+01 -1.512241760728948580e-82
5.000624999999993747e+01 -1.389564702163738019e-82
5.021999999999991360e+01 -8.406616919444202277e-83
5.043374999999991815e+01 2.031265286091906425e-83
5.064749999999992269e+01 1.714452653463768340e-82
5.086124999999992724e+01 3.529640285153793630e-82
5.107499999999993179e+01 5.324417741506764351e-82
5.128874999999993634e+01 6.619989257016296753e-82
5.150249999999991246e+01 6.832689036448072484e-82
5.171624999999991701e+01 5.375421287738403964e-82
5.192999999999992156e+01 1.809434018550845379e-82
5.214374999999992610e+01 -3.968969844919379112e-82
5.235749999999993065e+01 -1.153879787800698411e-81
5.257124999999993520e+01 -1.981001661335039937e-81
5.278499999999991132e+01 -2.698398884416007357e-81
5.299874999999991587e+01 -3.067930083002961792e-81
5.321249999999992042e+01 -2.826932096042110448e-81
5.342624999999992497e+01 -1.744466123357859969e-81
5.363999999999992951e+01 3.038638291606206945e-82
5.385374999999993406e+01 3.253127835549561178e-81
5.406749999999991019e+01 6.776011025151027253e-81
5.428124999999991473e+01 1.024297547718643929e-80
5.449499999999991928e+01 1.274156399459615318e-80
5.470874999999992383e+01 1.317759436807673155e-80
5.492249999999992838e+01 1.047044122179115058e-80
5.513624999999993292e+01 3.835984133105798339e-81
5.534999999999990905e+01 -6.874791423695538144e-81
5.556374999999991360e+01 -2.084270937121450589e-80
5.577749999999991815e+01 -3.604081772556618893e-80
5.599124999999992269e+01 -4.919275067151829408e-80
5.620499999999992724e+01 -5.603060988029528486e-80
5.641874999999993179e+01 -5.192362940495936398e-80
5.663249999999990791e+01 -3.288646735562658162e-80
5.684624999999991246e+01 3.117083211564739972e-81
5.705999999999991701e+01 5.477279825179566310e-80
5.727374999999992156e+01 1.162292888368315607e-79
5.748749999999992610e+01 1.765239663018041285e-79
5.770124999999993065e+01 2.200427708927773907e-79
5.791499999999990678e+01 2.283605176591811742e-79
5.812874999999991132e+01 1.836130160352775410e-79
5.834249999999991587e+01 7.323089852821066360e-80
5.855624999999992042e+01 -1.045553412696787516e-79
5.876999999999992497e+01 -3.354859414919828696e-79
5.898374999999992951e+01 -5.857568103243213738e-79
5.919749999999990564e+01 -8.018569384057124358e-79
5.941124999999991019e+01 -9.152684150139794048e-79
5.962499999999991473e+01 -8.529733328537996570e-79
5.983874999999991928e+01 -5.536611523124416673e-79
6.005249999999992383e+01 1.194957418103535851e-80
6.026624999999992838e+01 8.199807187853649948e-79
6.047999999999990450e+01 1.776388676164823765e-78
6.069374999999990905e+01 2.710101485098104219e-78
6.090749999999991360e+01 3.382353345882050569e-78
6.112124999999991815e+01 3.516800523579028647e-78
6.133499999999992269e+01 2.851755464270647298e-78
6.154874999999992724e+01 1.210916272243656822e-78
6.176249999999993179e+01 -1.417178959258045126e-78
6.197624999999990791e+01 -4.807032915987212693e-78
6.218999999999991246e+01 -8.452373879842505285e-78
6.240374999999991701e+01 -1.157332977605136403e-77
6.261749999999992156e+01 -1.319403547563395517e-77
6.283124999999992610e+01 -1.230066886787865905e-77
6.304499999999993065e+01 -8.074050878256377561e-78
6.325874999999990678e+01 -1.699993264579238171e-79
6.347249999999991132e+01 1.100224727201503647e-77
6.368624999999991587e+01 2.407307960023175381e-77
6.389999999999992042e+01 3.665721699982503111e-77
6.411374999999992497e+01 4.552520294270608370e-77
6.432749999999992951e+01 4.705103453652903501e-77
6.454124999999990564e+01 3.793670857097899449e-77
6.475499999999991019e+01 1.614612582746550846e-77
6.496874999999991473e+01 -1.809818579235245192e-77
6.518249999999991928e+01 -6.147617181922042439e-77
6.539624999999992383e+01 -1.071585040532360528e-76
6.560999999999992838e+01 -1.450922027173447927e-76
6.582374999999990450e+01 -1.631876444194804213e-76
6.603749999999990905e+01 -1.494676135592258253e-76
6.625124999999991360e+01 -9.502394022407287083e-77
6.646499999999991815e+01 2.633913491353986934e-78
6.667874999999992269e+01 1.365136607309151783e-76
6.689249999999992724e+01 2.882259480123290325e-76
6.710624999999990337e+01 4.281383319384382021e-76
6.731999999999990791e+01 5.183534723127812598e-76
6.753374999999991246e+01 5.188534269668037875e-76
6.774749999999991701e+01 3.964909733170094420e-76
6.796124999999992156e+01 1.356723398391137092e-76
6.817499999999992610e+01 -2.512922953360656423e-76
6.838874999999990223e+01 -7.168849502827412061e-76
6.860249999999990678e+01 -1.177105281446004349e-75
6.881624999999991132e+01 -1.518820615206940575e-75
6.902999999999991587e+01 -1.617136995522558790e-75
6.924374999999992042e+01 -1.362169376487519039e-75
6.945749999999992497e+01 -6.919520427908976308e-76
6.967124999999990109e+01 3.745856077994034780e-76
6.988499999999990564e+01 1.712988166005676521e-75
7.009874999999991019e+01 3.086458790669864182e-75
7.031249999999991473e+01 4.165339497825632851e-75
7.052624999999991928e+01 4.577779923263861055e-75
7.073999999999992383e+01 3.990220549888318588e-75
7.095374999999989996e+01 2.207959820591348339e-75
7.116749999999990450e+01 -7.229961102715909327e-76
7.138124999999990905e+01 -4.439271517923397463e-75
7.159499999999991360e+01 -8.238790808008727631e-75
7.180874999999991815e+01 -1.114201948894309244e-74
7.202249999999992269e+01 -1.205165849044841215e-74
7.223624999999989882e+01 -1.000647666686059981e-74
7.244999999999990337e+01 -4.497747698725605608e-75
7.266374999999990791e+01 4.213038301497247247e-75
7.287749999999991246e+01 1.486192336454715094e-74
7.309124999999991701e+01 2.513476339945978223e-74
7.330499999999992156e+01 3.189361129076680322e-74
7.351874999999989768e+01 3.172885288671209417e-74
7.373249999999990223e+01 2.182073949733072866e-74
7.394624999999990678e+01 1.001578129197540521e-75
7.415999999999991132e+01 -2.919221127798031364e-74
7.437374999999991587e+01 -6.377711864325364531e-74
7.458749999999992042e+01 -9.423196662701777157e-74
7.480124999999992497e+01 -1.093727274125491402e-73
7.501499999999990109e+01 -9.737657395594729294e-74
7.522874999999990564e+01 -4.890303248707649533e-74
7.544249999999991019e+01 3.906548957349964902e-74
7.565624999999991473e+01 1.594080689422413436e-73
7.586999999999991928e+01 2.921455030723559190e-73
7.608374999999992383e+01 4.040689131425868203e-73
7.629749999999989996e+01 4.518928433996547400e-73
7.651124999999990450e+01 3.896812999584633998e-73
7.672499999999990905e+01 1.804749472325317485e-73
7.693874999999991360e+01 -1.891205650636599628e-73
7.715249999999991815e+01 -6.939856094966739446e-73
7.736624999999992269e+01 -1.259055262118761824e-72
7.757999999999989882e+01 -1.756105600373252282e-72
7.779374999999990337e+01 -2.013404466148479928e-72
7.800749999999990791e+01 -1.841571745863615998e-72
7.822124999999991246e+01 -1.076230248007527308e-72
7.843499999999991701e+01 3.661259934183178223e-73
7.864874999999992156e+01 2.427701027569156346e-72
7.886249999999989768e+01 4.858164167030900038e-72
7.907624999999990223e+01 7.190197967842513834e-72
7.928999999999990678e+01 8.760401740912105476e-72
7.950374999999991132e+01 8.790784586049288078e-72
7.971749999999991587e+01 6.537354715401518787e-72
7.993124999999992042e+01 1.498051776106980235e-72
8.014499999999989654e+01 -6.346334635547282853e-72
8.035874999999990109e+01 -1.630476315178774767e-71
8.057249999999990564e+01 -2.682584440368606324e-71
8.078624999999991019e+01 -3.549767461913549343e-71
8.099999999999991473e+01 -3.926471459228939074e-71
8.121374999999991928e+01 -3.490411709479642543e-71
8.142749999999989541e+01 -1.975781025242362350e-71
8.164124999999989996e+01 7.348651033610870674e-72
8.185499999999990450e+01 4.514608500056638701e-71
8.206874999999990905e+01 8.914009784820152385e-71
8.228249999999991360e+01 1.312793805398687132e-70
8.249624999999991815e+01 1.603530149106972924e-70
8.270999999999989427e+01 1.633384993923671823e-70
8.292374999999989882e+01 1.277858971259532428e-70
8.313749999999990337e+01 4.510783215288636328e-71
8.335124999999990791e+01 -8.563141031243491689e-71
8.356499999999991246e+01 -2.541305488939771793e-70
8.377874999999991701e+01 -4.364251651421210913e-70
8.399249999999989313e+01 -5.947058572351024188e-70
8.420624999999989768e+01 -6.803894828585847424e-70
8.441999999999990223e+01 -6.411014868352160534e-70
8.463374999999990678e+01 -4.315705232900270849e-70
8.484749999999991132e+01 -2.750222457148648438e-71
8.506124999999991587e+01 5.596065706456302687e-70
8.527499999999989200e+01 1.269837192805425759e-69
8.548874999999989654e+01 1.988325374483011571e-69
8.570249999999990109e+01 2.548972080686703507e-69
8.591624999999990564e+01 2.751830816214307706e-69
8.612999999999991019e+01 2.395829327923193857e-69
8.634374999999991473e+01 1.325566643575923937e-69
8.655749999999989086e+01 -5.129066495318647737e-70
8.677124999999989541e+01 -3.016645106823344090e-69
8.698499999999989996e+01 -5.883818308349811760e-69
8.719874999999990450e+01 -8.600588870267040373e-69
8.741249999999990905e+01 -1.047192373400878979e-68
8.762624999999991360e+01 -1.070740102150326105e-68
8.783999999999991815e+01 -8.564854311297919004e-69
8.805374999999989427e+01 -3.542443082497221361e-69
8.826749999999989882e+01 4.405352859445868860e-69
8.848124999999990337e+01 1.466790934360146971e-68
8.869499999999990791e+01 2.584759268218731271e-68
8.890874999999991246e+01 3.575633186045264806e-68
8.912249999999991701e+01 4.159264081569501543e-68
8.933624999999989313e+01 4.033222228878054065e-68
8.954999999999989768e+01 2.932972658685589951e-68
8.976374999999990223e+01 7.079831731292228960e-69
8.997749999999990678e+01 -2.597170797667728881e-68
9.019124999999991132e+01 -6.673213523201395512e-68
9.040499999999991587e+01 -1.090864769096950542e-67
9.061874999999989200e+01 -1.440585424715037559e-67
9.083249999999989654e+01 -1.606884124767266588e-67
9.104624999999990109e+01 -1.477163006261763112e-67
9.125999999999990564e+01 -9.601558598256121300e-68
9.147374999999991019e+01 -1.524793684399361730e-69
9.168749999999991473e+01 1.317851862319869156e-67
9.190124999999989086e+01 2.895660948517204271e-67
9.211499999999989541e+01 4.461492583131265945e-67
9.232874999999989996e+01 5.657790359794181910e-67
9.254249999999990450e+01 6.066151612452024394e-67
9.275624999999990905e+01 5.277082432666149824e-67
9.296999999999991360e+01 2.985644661522678258e-67
9.318374999999988972e+01 -8.981954098615311253e-68
9.339749999999989427e+01 -6.143452939717518427e-67
9.361124999999989882e+01 -1.212173871776539846e-66
9.382499999999990337e+01 -1.778952394722345169e-66
9.403874999999990791e+01 -2.175627749007251034e-66
9.425249999999991246e+01 -2.245723197198260561e-66
9.446624999999988859e+01 -1.843354190205408230e-66
9.467999999999989313e+01 -8.699697952827895071e-67
9.489374999999989768e+01 6.849335280563105404e-67
9.510749999999990223e+01 2.706633318008752936e-66
9.532124999999990678e+01 4.931205753255571239e-66
9.553499999999991132e+01 6.945275567253947491e-66
9.574874999999988745e+01 8.218860916132610745e-66
9.596249999999989200e+01 8.176998805870920695e-66
9.617624999999989654e+01 6.309453827394392272e-66
9.638999999999990109e+01 2.309098523907490191e-66
9.660374999999990564e+01 -3.780465734256874011e-66
9.681749999999991019e+01 -1.143709003770524721e-65
9.703124999999988631e+01 -1.958802300530512881e-65
9.724499999999989086e+01 -2.663123639721964271e-65
9.745874999999989541e+01 -3.058173989671198629e-65
9.767249999999989996e+01 -2.935919046024168034e-65
9.788624999999990450e+01 -2.120829410219667538e-65
9.809999999999990905e+01 -5.210991056839476815e-66
9.831374999999988518e+01 1.818659826329090907e-65
9.852749999999988972e+01 4.674243806660768283e-65
9.874124999999989427e+01 7.621349569819911193e-65
9.895499999999989882e+01 1.005096414979529325e-64
9.916874999999990337e+01 1.123110845893763492e-64
9.938249999999990791e+01 1.041926009119241480e-64
9.959624999999988404e+01 7.020360632037926812e-65
9.980999999999988859e+01 7.734073659832046793e-66
1.000237499999998931e+02 -8.063106550789493827e-65
1.002374999999998977e+02 -1.856774201304818616e-64
1.004512499999999022e+02 -2.910192134066536460e-64
1.006649999999999068e+02 -3.739084314838886860e-64
1.008787499999998829e+02 -4.077342906858649176e-64
1.010924999999998875e+02 -3.663141197269872984e-64
1.013062499999998920e+02 -2.297265469044548503e-64
1.015199999999998965e+02 8.990651881472170466e-66
1.017337499999999011e+02 3.373991558864669372e-64
1.019474999999999056e+02 7.189642533258530026e-64
1.021612499999999102e+02 1.091778216679412765e-63
1.023749999999998863e+02 1.372269076271720018e-63
1.025887499999998909e+02 1.464975290185900407e-63
1.028024999999998954e+02 1.278566332941331184e-63
1.030162499999999000e+02 7.470131450441348371e-64
1.032299999999999045e+02 -1.467046331574684928e-64
1.034437499999999091e+02 -1.348489178627897702e-63
1.036574999999998852e+02 -2.717948083753990537e-63
1.038712499999998897e+02 -4.025989945836364592e-63
1.040849999999998943e+02 -4.970471111460711114e-63
1.042987499999998988e+02 -5.213276351371836513e-63
1.045124999999999034e+02 -4.438895349855491800e-63
1.047262499999999079e+02 -2.429995909719573898e-63
1.049399999999998840e+02 8.497893403760562764e-64
1.051537499999998886e+02 5.180792529587482463e-63
1.053674999999998931e+02 1.003874906875179758e-62
1.055812499999998977e+02 1.459282541994103493e-62
1.057949999999999022e+02 1.776781419346845608e-62
1.060087499999999068e+02 1.838093082953344228e-62
1.062224999999998829e+02 1.535168437887772212e-62
1.064362499999998875e+02 7.967296063808995279e-63
1.066499999999998920e+02 -3.831978490683501648e-63
1.068637499999998965e+02 -1.920044487580769850e-62
1.070774999999999011e+02 -3.623257765345450777e-62
1.072912499999999056e+02 -5.197474576841683957e-62
1.075049999999998818e+02 -6.266093977678606498e-62
1.077187499999998863e+02 -6.420432072134420061e-62
1.079324999999998909e+02 -5.293428899755378735e-62
1.081462499999998954e+02 -2.651367414360696287e-62
1.083599999999999000e+02 1.509052465766464496e-62
1.085737499999999045e+02 6.876603013753359570e-62
1.087874999999998806e+02 1.277655903119551820e-61
1.090012499999998852e+02 1.817965900251733857e-61
1.092149999999998897e+02 2.178786984365085617e-61
1.094287499999998943e+02 2.220659400462895179e-61
1.096424999999998988e+02 1.819844718081753368e-61
1.098562499999999034e+02 8.995100528776624499e-62
1.100699999999998795e+02 -5.376662561308763476e-62
1.102837499999998840e+02 -2.381696285455624338e-61
1.104974999999998886e+02 -4.399724876153110870e-61
1.107112499999998931e+02 -6.240238709962622497e-61
1.109249999999998977e+02 -7.463141078453169226e-61
1.111387499999999022e+02 -7.598609001335344605e-61
1.113524999999998784e+02 -6.232756524090261941e-61
1.115662499999998829e+02 -3.111937358972164545e-61
1.117799999999998875e+02 1.749146067136355318e-61
1.119937499999998920e+02 7.976297818474568743e-61
1.122074999999998965e+02 1.478615925392992937e-60
1.124212499999999011e+02 2.100254775005592717e-60
1.126349999999998772e+02 2.515835411418786994e-60
1.128487499999998818e+02 2.569186703335146585e-60
1.130624999999998863e+02 2.123023763054725006e-60
1.132762499999998909e+02 1.093259160683486411e-60
1.134899999999998954e+02 -5.156227832574483634e-61
1.137037499999999000e+02 -2.580921936522431557e-60
1.139174999999998761e+02 -4.845760116741212374e-60
1.141312499999998806e+02 -6.924693981093865039e-60
1.143449999999998852e+02 -8.337122190490964896e-60
1.145587499999998897e+02 -8.571209756700550194e-60
1.147724999999998943e+02 -7.175827483864429206e-60
1.149862499999998988e+02 -3.871524656483385579e-60
1.151999999999998749e+02 1.335295701435066021e-60
1.154137499999998795e+02 8.056792154929259135e-60
1.156274999999998840e+02 1.547206553181401165e-59
1.158412499999998886e+02 2.234456872969481092e-59
1.160549999999998931e+02 2.712817568534991724e-59
1.162687499999998977e+02 2.817037434342126293e-59
1.164824999999999022e+02 2.400449145675582261e-59
1.166962499999998784e+02 1.370243923388065633e-59
1.169099999999998829e+02 -2.761998969726369206e-60
1.171237499999998875e+02 -2.420791885883165228e-59
1.173374999999998920e+02 -4.807972048839817850e-59
1.175512499999998965e+02 -7.049572184321865410e-59
1.177649999999999011e+02 -8.657440526067243466e-59
1.179787499999998772e+02 -9.106492957957845897e-59
1.181924999999998818e+02 -7.925712708151615833e-59
1.184062499999998863e+02 -4.808299196893464970e-59
1.186199999999998909e+02 2.744652740574285674e-60
1.188337499999998954e+02 6.976794810709793696e-59
1.190474999999999000e+02 1.452400119201442600e-58
1.192612499999998761e+02 2.172436736635496745e-58
1.194749999999998806e+02 2.706634673090768913e-58
1.196887499999998852e+02 2.890953983555324767e-58
1.199024999999998897e+02 2.576225302096650707e-58
1.201162499999998943e+02 1.661921758468573809e-58
1.203299999999998988e+02 1.312877179135773011e-59
1.205437499999998749e+02 -1.918581344716700659e-58
1.207574999999998795e+02 -4.259162201706521689e-58
1.209712499999998840e+02 -6.532810890613898869e-58
1.211849999999998886e+02 -8.280798774240392318e-58
1.213987499999998931e+02 -8.999767919518789591e-58
1.216124999999998977e+02 -8.224628589389254287e-58
1.218262499999998738e+02 -5.630177913253893824e-58
1.220399999999998784e+02 -1.137680169016881070e-58
1.222537499999998829e+02 4.992603416694288367e-58
1.224674999999998875e+02 1.210515125556372997e-57
1.226812499999998920e+02 1.915130095525109775e-57
1.228949999999998965e+02 2.476746614796432798e-57
1.231087499999998727e+02 2.743798666693396455e-57
1.233224999999998772e+02 2.573750078355160496e-57
1.235362499999998818e+02 1.863087677989559003e-57
1.237499999999998863e+02 5.790955703726055956e-58
1.239637499999998909e+02 -1.212122111230323296e-57
1.241774999999998954e+02 -3.327872827885315455e-57
1.243912499999998715e+02 -5.467882283930691193e-57
1.246049999999998761e+02 -7.235370476791985094e-57
1.248187499999998806e+02 -8.182880846361435716e-57
1.250324999999998852e+02 -7.881634621683030467e-57
1.252462499999998897e+02 -6.008328167603481671e-57
1.254599999999998943e+02 -2.438140357279663087e-57
1.256737499999998704e+02 2.671834338815640706e-57
1.258874999999998749e+02 8.827415272021067400e-57
1.261012499999998795e+02 1.518932802426170434e-56
1.263149999999998840e+02 2.062794149882324710e-56
1.265287499999998886e+02 2.384906811340510403e-56