2.024999999999579359e-01 2.670228793844439968e-96
4.162499999999482725e-01 4.092519847529144626e-96
6.299999999999528200e-01 5.057304310921874143e-96
8.437499999999573674e-01 4.748415483562338162e-96
1.057499999999947704e+00 2.164013981245941647e-96
1.271249999999952252e+00 -3.625458075565640207e-96
1.484999999999956799e+00 -1.302460403960812418e-95
1.698749999999947136e+00 -2.528622914014479669e-95
1.912499999999951683e+00 -3.782107602475203291e-95
2.126249999999956231e+00 -4.567603189215794366e-95
2.339999999999946567e+00 -4.154083041219676541e-95
2.553749999999951115e+00 -1.673143131226162658e-95
2.767499999999955662e+00 3.642338367125514097e-95
2.981249999999945999e+00 1.205801961545376879e-94
3.194999999999950546e+00 2.280327229075871731e-94
3.408749999999955094e+00 3.350588433562859959e-94
3.622499999999945430e+00 3.979980683401380925e-94
3.836249999999949978e+00 3.540894384301348605e-94
4.049999999999954525e+00 1.306961734743965335e-94
4.263749999999944862e+00 -3.338251314284070839e-94
4.477499999999949409e+00 -1.056327773928519925e-93
4.691249999999953957e+00 -1.964969872396935327e-93
4.904999999999944293e+00 -2.854346175198185564e-93
5.118749999999948841e+00 -3.356644195015116480e-93
5.332499999999953388e+00 -2.953294520360424774e-93
5.546249999999943725e+00 -1.055469933680129158e-93
5.759999999999948272e+00 2.822336167825795246e-93
5.973749999999952820e+00 8.788342359689543268e-93
6.187499999999943157e+00 1.622512267214767024e-92
6.401249999999947704e+00 2.344261377544181761e-92
6.614999999999952252e+00 2.746814909934168591e-92
6.828749999999942588e+00 2.416408721720282370e-92
7.042499999999947136e+00 8.888371250481961661e-93
7.256249999999951683e+00 -2.212519653383167474e-92
7.469999999999942020e+00 -6.962682674559630697e-92
7.683749999999946567e+00 -1.286696366260150525e-91
7.897499999999951115e+00 -1.859842198859962620e-91
8.111249999999941451e+00 -2.184505052156005730e-91
8.324999999999945999e+00 -1.941037895391557955e-91
8.538749999999950546e+00 -7.726950305244098275e-92
8.752499999999940883e+00 1.609009802230375277e-91
8.966249999999945430e+00 5.262702277641846712e-91
9.179999999999949978e+00 9.816451533847037440e-91
9.393749999999940314e+00 1.427292425526486281e-90
9.607499999999944862e+00 1.689756702817782616e-90
9.821249999999949409e+00 1.529502285515266753e-90
1.003499999999993975e+01 6.789210550763372075e-91
1.024874999999994429e+01 -1.080231414552779946e-90
1.046249999999994884e+01 -3.798613457275973560e-90
1.067624999999993918e+01 -7.212935882366312075e-90
1.088999999999994373e+01 -1.060397959232302998e-89
1.110374999999994827e+01 -1.271433105742651562e-89
1.131749999999993861e+01 -1.180078316609675423e-89
1.153124999999994316e+01 -5.903193922344855600e-90
1.174499999999994770e+01 6.606275777851671628e-90
1.195874999999993804e+01 2.618397562525350802e-89
1.217249999999994259e+01 5.107405551262935324e-89
1.238624999999994714e+01 7.629289308169406504e-89
1.259999999999993747e+01 9.302336250034742440e-89
1.281374999999994202e+01 8.893900301987745253e-89
1.302749999999994657e+01 5.002557549746677429e-89
1.324124999999995111e+01 -3.565400166097594120e-89
1.345499999999994145e+01 -1.721748522355006209e-88
1.366874999999994600e+01 -3.485339820239789809e-88
1.388249999999995055e+01 -5.315279270347083134e-88
1.409624999999994088e+01 -6.613200325845204121e-88
1.430999999999994543e+01 -6.532138554873674422e-88
1.452374999999994998e+01 -4.094861214969132042e-88
1.473749999999994031e+01 1.556504563329780521e-88
1.495124999999994486e+01 1.077309423446338354e-87
1.516499999999994941e+01 2.291153522295201020e-87
1.537874999999993975e+01 3.584497146517220985e-87
1.559249999999994429e+01 4.564298905210799435e-87
1.580624999999994884e+01 4.665213653206066716e-87
1.601999999999993918e+01 3.223290814208268078e-87
1.623374999999994373e+01 -3.638870031463729891e-88
1.644749999999994827e+01 -6.385214451027468908e-87
1.666124999999993861e+01 -1.449483914281915460e-86
1.687499999999994316e+01 -2.338408109032040934e-86
1.708874999999994770e+01 -3.055476997263984882e-86
1.730249999999993804e+01 -3.234270771290169565e-86
1.751624999999994259e+01 -2.435722776004025835e-86
1.772999999999994714e+01 -2.475009012959176299e-87
1.794374999999993747e+01 3.556803300345427576e-86
1.815749999999994202e+01 8.811711057369124018e-86
1.837124999999994657e+01 1.474505371077153870e-85
1.858499999999993690e+01 1.982126359921322993e-85
1.879874999999994145e+01 2.173569343701826527e-85
1.901249999999994600e+01 1.766503445210494013e-85
1.922624999999993634e+01 4.863669486176774285e-86
1.943999999999994088e+01 -1.836012134346173432e-85
1.965374999999994543e+01 -5.135927614525414113e-85
1.986749999999993577e+01 -8.977738690904646856e-85
2.008124999999994031e+01 -1.244941840591790196e-84
2.029499999999994486e+01 -1.414523302348434329e-84
2.050874999999993520e+01 -1.230141328357997001e-84
2.072249999999993975e+01 -5.141877347277693128e-85
2.093624999999994429e+01 8.540956205533468574e-85
2.114999999999993463e+01 2.860679194922772868e-84
2.136374999999993918e+01 5.271612464233308710e-84
2.157749999999994373e+01 7.564095723897193622e-84
2.179124999999993406e+01 8.907202472583626060e-84
2.200499999999993861e+01 8.231266729090858446e-84
2.221874999999994316e+01 4.421283732588116458e-84
2.243249999999993349e+01 -3.348024033152765919e-84
2.264624999999993804e+01 -1.515282289417063966e-83
2.285999999999994259e+01 -2.980580369610811764e-83
2.307374999999993292e+01 -4.441905945663014478e-83
2.328749999999993747e+01 -5.423662274618615038e-83
2.350124999999994202e+01 -5.296518621856384290e-83
2.371499999999993236e+01 -3.381635246375823569e-83
2.392874999999993690e+01 8.620481291946356834e-84
2.414249999999994145e+01 7.574848072694210448e-83
2.435624999999993179e+01 1.619426237195440620e-82
2.456999999999993634e+01 2.518620795418725103e-82
2.478374999999994088e+01 3.191716076380041785e-82
2.499749999999993122e+01 3.279747369265239398e-82
2.521124999999993577e+01 2.382121705623842939e-82
2.542499999999994031e+01 1.579631365285763099e-83
2.563874999999993065e+01 -3.527785613216456934e-82
2.585249999999993520e+01 -8.432025112874225877e-82
2.606624999999993975e+01 -1.377334984679546674e-81
2.627999999999994429e+01 -1.814252434573935109e-81
2.649374999999993463e+01 -1.955583015229758819e-81
2.670749999999993918e+01 -1.572292248453708997e-81
2.692124999999994373e+01 -4.577154606054700222e-82
2.713499999999993406e+01 1.493705364158579347e-81
2.734874999999993861e+01 4.190956154762206327e-81
2.756249999999994316e+01 7.253983642832967535e-81
2.777624999999993349e+01 9.955041119929283776e-81
2.798999999999993804e+01 1.123280147395208879e-80
2.820374999999994259e+01 9.819047442144930534e-81
2.841749999999993292e+01 4.506664901061830113e-81
2.863124999999993747e+01 -5.439061284881259415e-81
2.884499999999994202e+01 -1.976723840489067709e-80
2.905874999999993236e+01 -3.672410935908178180e-80
2.927249999999993690e+01 -5.268939417508983039e-80
2.948624999999994145e+01 -6.217035203653677232e-80
2.969999999999993179e+01 -5.836856828862535346e-80
2.991374999999993634e+01 -3.448536867364582121e-80
3.012749999999994088e+01 1.419747742283252946e-80
3.034124999999993122e+01 8.764168328481199149e-80
3.055499999999993577e+01 1.782493095389532407e-79
3.076874999999994031e+01 2.687143865151024515e-79
3.098249999999993065e+01 3.315682043599619178e-79
3.119624999999993520e+01 3.315463742064365410e-79
3.140999999999993975e+01 2.317025873609512125e-79
3.162374999999993008e+01 3.591638570185628411e-81
3.183749999999993463e+01 -3.592036466319706834e-79
3.205124999999993918e+01 -8.263576784694284112e-79
3.226499999999992951e+01 -1.318654234502165298e-78
3.247874999999993406e+01 -1.703538184229292623e-78
3.269249999999993861e+01 -1.804114960181186601e-78
3.290624999999992895e+01 -1.426580187927465956e-78
3.311999999999993349e+01 -4.083640064365393815e-79
3.333374999999993804e+01 1.315634560662336509e-78
3.354749999999992838e+01 3.638239235225934999e-78
3.376124999999993292e+01 6.214051602607699706e-78
3.397499999999993747e+01 8.426966343967149243e-78
3.418874999999992781e+01 9.419578154152905125e-78
3.440249999999993236e+01 8.210431258678382097e-78
3.461624999999993690e+01 3.913501138489212630e-78
3.482999999999992724e+01 -3.947934074110188128e-78
3.504374999999993179e+01 -1.507307563940411001e-77
3.525749999999993634e+01 -2.803921070759122562e-77
3.547124999999992667e+01 -4.009536541745366646e-77
3.568499999999993122e+01 -4.723044523560798453e-77
3.589874999999993577e+01 -4.464661655503676679e-77
3.611249999999992610e+01 -2.772159616913322508e-77
3.632624999999993065e+01 6.553611981560011659e-78
3.653999999999993520e+01 5.782079598155289655e-77
3.675374999999992554e+01 1.206218417254780959e-76
3.696749999999993008e+01 1.832006485478693662e-76
3.718124999999993463e+01 2.274745083935850696e-76
3.739499999999992497e+01 2.308124181599845282e-76
3.760874999999992951e+01 1.700775180587770638e-76
3.782249999999993406e+01 2.798270360572524198e-77
3.803624999999993861e+01 -1.988304052740554340e-76
3.824999999999994316e+01 -4.913863239436946064e-76
3.846374999999991928e+01 -8.018740675217126266e-76
3.867749999999992383e+01 -1.051910676825044088e-75
3.889124999999992838e+01 -1.138577205621315333e-75
3.910499999999993292e+01 -9.505984965056556170e-76
3.931874999999993747e+01 -3.953953875437676582e-76
3.953249999999994202e+01 5.649658334810034251e-76
3.974624999999991815e+01 1.874447381295238073e-75
3.995999999999992269e+01 3.349673747180298566e-75
4.017374999999992724e+01 4.665006991883047660e-75
4.038749999999993179e+01 5.369788276230429489e-75
4.060124999999993634e+01 4.949488874652222066e-75
4.081499999999994088e+01 2.936222637876335858e-75
4.102874999999991701e+01 -9.369522915410672624e-76
4.124249999999992156e+01 -6.558580351156165406e-75
4.145624999999992610e+01 -1.327577777050821662e-74
4.166999999999993065e+01 -1.979822044506614385e-74
4.188374999999993520e+01 -2.422971267679216787e-74
4.209749999999993975e+01 -2.428306267880221149e-74
4.231124999999991587e+01 -1.771130431915204581e-74
4.252499999999992042e+01 -2.945163808454709238e-75
4.273874999999992497e+01 2.013515985885306779e-74
4.295249999999992951e+01 4.943855716196062043e-74
4.316624999999993406e+01 8.012556416932062354e-74
4.337999999999993861e+01 1.045530582603437067e-73
4.359374999999991473e+01 1.129550328732106640e-73
4.380749999999991928e+01 9.503781766478769166e-74
4.402124999999992383e+01 4.250698106742906060e-74
4.423499999999992838e+01 -4.770128423744862920e-74
4.444874999999993292e+01 -1.700132489589146096e-73
4.466249999999993747e+01 -3.074691854386438168e-73
4.487624999999991360e+01 -4.306947201912870844e-73
4.508999999999991815e+01 -4.997044435025127079e-73
4.530374999999992269e+01 -4.694267196708698039e-73
4.551749999999992724e+01 -2.992693415424504143e-73
4.573124999999993179e+01 3.388167810186191139e-74
4.594499999999993634e+01 5.210454738656567363e-73
4.615874999999991246e+01 1.108025552507402081e-72
4.637249999999991701e+01 1.687984964231186273e-72
4.658624999999992156e+01 2.104403229700818095e-72
4.679999999999992610e+01 2.168574584338908413e-72
4.701374999999993065e+01 1.693933391388741534e-72
4.722749999999993520e+01 5.461355480216255120e-73
4.744124999999993975e+01 -1.296823682745691381e-72
4.765499999999991587e+01 -3.685494257768980823e-72
4.786874999999992042e+01 -6.256804050683050686e-72
4.808249999999992497e+01 -8.427804913598084172e-72
4.829624999999992951e+01 -9.443769283341734904e-72
4.850999999999993406e+01 -8.493501038627453613e-72
4.872374999999993861e+01 -4.893233776395903532e-72
4.893749999999991473e+01 1.676652841531964056e-72
4.915124999999991928e+01 1.091881391106131609e-71
4.936499999999992383e+01 2.170781068568005769e-71
4.957874999999992838e+01 3.199430595529365693e-71
4.979249999999993292e+01 3.890236373374998910e-71
5.000624999999993747e+01 3.908371587428864737e-71
5.021999999999991360e+01 2.935625501637641325e-71
5.043374999999991815e+01 7.593817523411403637e-72
5.064749999999992269e+01 -2.624477103006482369e-71
5.086124999999992724e+01 -6.914579440774356477e-71
5.107499999999993179e+01 -1.144033108140617572e-70
5.128874999999993634e+01 -1.516273518650792995e-70
5.150249999999991246e+01 -1.676887957358283325e-70
5.171624999999991701e+01 -1.487868924856645607e-70
5.192999999999992156e+01 -8.362615939932660806e-71
5.214374999999992610e+01 3.259590424451716117e-71
5.235749999999993065e+01 1.940268701977434338e-70
5.257124999999993520e+01 3.807894169919258215e-70
5.278499999999991132e+01 5.576046163783508652e-70
5.299874999999991587e+01 6.756495129093752757e-70
5.321249999999992042e+01 6.786379248558277690e-70
5.342624999999992497e+01 5.135026449146471560e-70
5.363999999999992951e+01 1.450806074578950762e-70
5.385374999999993406e+01 -4.270596592398279984e-70
5.406749999999991019e+01 -1.152870597230203700e-69
5.428124999999991473e+01 -1.921548572957778451e-69
5.449499999999991928e+01 -2.561717876586013611e-69
5.470874999999992383e+01 -2.856699722457552394e-69
5.492249999999992838e+01 -2.577819530879807382e-69
5.513624999999993292e+01 -1.535566361739595680e-69
5.534999999999990905e+01 3.560662428306068731e-70
5.556374999999991360e+01 3.012050373773713914e-69
5.577749999999991815e+01 6.120818378784951149e-69
5.599124999999992269e+01 9.119790276230338800e-69
5.620499999999992724e+01 1.122174939012642868e-68
5.641874999999993179e+01 1.150818318929458438e-68
5.663249999999990791e+01 9.096417428148799608e-69
5.684624999999991246e+01 3.372296720638589705e-69
5.705999999999991701e+01 -5.739562861171964351e-69
5.727374999999992156e+01 -1.751753143340518159e-68
5.748749999999992610e+01 -3.026534636616908337e-68
5.770124999999993065e+01 -4.129438624907462643e-68
5.791499999999990678e+01 -4.714107535304616226e-68
5.812874999999991132e+01 -4.407042195932769824e-68
5.834249999999991587e+01 -2.886924531088170844e-68
5.855624999999992042e+01 1.366814516033270702e-70
5.876999999999992497e+01 4.199126758089572280e-68
5.898374999999992951e+01 9.217664754770228080e-68
5.919749999999990564e+01 1.421402452822643451e-67
5.941124999999991019e+01 1.795988840195512961e-67
5.962499999999991473e+01 1.898891717323201846e-67
5.983874999999991928e+01 1.584963275048381777e-67
6.005249999999992383e+01 7.466352326810994216e-68
6.026624999999992838e+01 -6.432404120966146502e-68
6.047999999999990450e+01 -2.489305971632710200e-67
6.069374999999990905e+01 -4.542997997903978628e-67
6.090749999999991360e+01 -6.395763610475567950e-67
6.112124999999991815e+01 -7.508389501024774063e-67
6.133499999999992269e+01 -7.285163259364553240e-67
6.154874999999992724e+01 -5.194435305187342396e-67
6.176249999999993179e+01 -9.264610101366405454e-68
6.197624999999990791e+01 5.433752708665378912e-67
6.218999999999991246e+01 1.325434135981422049e-66
6.240374999999991701e+01 2.127156533873976908e-66
6.261749999999992156e+01 2.762209009169297953e-66
6.283124999999992610e+01 3.003597622544103634e-66
6.304499999999993065e+01 2.621333102696414043e-66
6.325874999999990678e+01 1.437250083286162185e-66
6.347249999999991132e+01 -6.089747675402508867e-67
6.368624999999991587e+01 -3.393910068143909292e-66
6.389999999999992042e+01 -6.560766018897157570e-66
6.411374999999992497e+01 -9.505345785563060651e-66
6.432749999999992951e+01 -1.141642274187476325e-65
6.454124999999990564e+01 -1.138422537020387600e-65
6.475499999999991019e+01 -8.579898205908349964e-66
6.496874999999991473e+01 -2.492599975692468163e-66
6.518249999999991928e+01 6.809033041802273324e-66
6.539624999999992383e+01 1.844467447589717895e-65
6.560999999999992838e+01 3.058886534956515474e-65
6.582374999999990450e+01 4.051147555564248732e-65
6.603749999999990905e+01 4.485671054445378049e-65
6.625124999999991360e+01 4.019437293906596920e-65
6.646499999999991815e+01 2.382459280764219006e-65
6.667874999999992269e+01 -5.253082920613442827e-66
6.689249999999992724e+01 -4.537374526007716988e-65
6.710624999999990337e+01 -9.148236278030870295e-65
6.731999999999990791e+01 -1.349301520000889117e-64
6.753374999999991246e+01 -1.640627705796691369e-64
6.774749999999991701e+01 -1.657911832714163494e-64
6.796124999999992156e+01 -1.281754317296079793e-64
6.817499999999992610e+01 -4.381564006882835830e-65
6.838874999999990223e+01 8.644014170939855817e-65
6.860249999999990678e+01 2.502455329042578083e-64
6.881624999999991132e+01 4.219497867705775630e-64
6.902999999999991587e+01 5.632821755607931548e-64
6.924374999999992042e+01 6.273995804422345926e-64
6.945749999999992497e+01 5.667100051905071223e-64
6.967124999999990109e+01 3.441315732337936959e-64
6.988499999999990564e+01 -5.353625540394716527e-65
7.009874999999991019e+01 -6.025185453063784724e-64
7.031249999999991473e+01 -1.232558662246507122e-63
7.052624999999991928e+01 -1.824801517525584554e-63
7.073999999999992383e+01 -2.220629276077144366e-63
7.095374999999989996e+01 -2.243802805749482202e-63
7.116749999999990450e+01 -1.735978870829343523e-63
7.138124999999990905e+01 -6.024358533768787654e-64
7.159499999999991360e+01 1.138947299947881025e-63
7.180874999999991815e+01 3.316050001359987165e-63
7.202249999999992269e+01 5.581328808813819584e-63
7.223624999999989882e+01 7.424574748917348688e-63
7.244999999999990337e+01 8.230299640330188940e-63
7.266374999999990791e+01 7.383915114272557150e-63
7.287749999999991246e+01 4.420684185013938414e-63
7.309124999999991701e+01 -8.014065416960431212e-64
7.330499999999992156e+01 -7.937122425950119773e-63
7.351874999999989768e+01 -1.604103799223967186e-62
7.373249999999990223e+01 -2.355426836917487208e-62
7.394624999999990678e+01 -2.843408928282992296e-62
7.415999999999991132e+01 -2.845233662121162027e-62
7.437374999999991587e+01 -2.165795100032904206e-62
7.458749999999992042e+01 -6.957458890983729693e-63
7.480124999999992497e+01 1.527974407333001194e-62
7.501499999999990109e+01 4.272746476898571733e-62
7.522874999999990564e+01 7.088344542114707348e-62
7.544249999999991019e+01 9.328649003957440563e-62
7.565624999999991473e+01 1.022904657599856570e-61
7.586999999999991928e+01 9.042907244482882222e-62
7.608374999999992383e+01 5.227643202741738290e-62
7.629749999999989996e+01 -1.344804654936305499e-62
7.651124999999990450e+01 -1.019395501121889407e-61
7.672499999999990905e+01 -2.010623064293991483e-61
7.693874999999991360e+01 -2.913691406437973848e-61
7.715249999999991815e+01 -3.478764039285918345e-61
7.736624999999992269e+01 -3.438554590316545260e-61
7.757999999999989882e+01 -2.565212549495010469e-61
7.779374999999990337e+01 -7.399879110449806661e-62
7.800749999999990791e+01 1.975969727405233202e-61
7.822124999999991246e+01 5.286101774007284024e-61
7.843499999999991701e+01 8.637351799815428603e-61
7.864874999999992156e+01 1.125181946255267554e-60
7.886249999999989768e+01 1.222399984891206016e-60
7.907624999999990223e+01 1.068581623272727333e-60
7.928999999999990678e+01 6.026422612770831983e-61
7.950374999999991132e+01 -1.864213118325373984e-61
7.971749999999991587e+01 -1.237641439589041305e-60
7.993124999999992042e+01 -2.404772850794756939e-60
8.014499999999989654e+01 -3.457986457365684266e-60
8.035874999999990109e+01 -4.105886131657686462e-60
8.057249999999990564e+01 -4.040406168386236370e-60
8.078624999999991019e+01 -3.002735281507577112e-60
8.099999999999991473e+01 -8.627725792736645935e-61
8.121374999999991928e+01 2.301383702650724813e-60
8.142749999999989541e+01 6.142510071216896618e-60
8.164124999999989996e+01 1.002314305582211441e-59
8.185499999999990450e+01 1.305420273782030688e-59
8.206874999999990905e+01 1.420681222878605460e-59
8.228249999999991360e+01 1.249875102523992339e-59
8.249624999999991815e+01 7.240152001684812169e-60
8.270999999999989427e+01 -1.696448545807545983e-60
8.292374999999989882e+01 -1.363522656377771000e-59
8.313749999999990337e+01 -2.695198222512696493e-59
8.335124999999990791e+01 -3.909400670741527090e-59
8.356499999999991246e+01 -4.682153511637054430e-59
8.377874999999991701e+01 -4.669721229486981461e-59
8.399249999999989313e+01 -3.580261919020544296e-59
8.420624999999989768e+01 -1.260099852972001383e-59
8.441999999999990223e+01 2.219790716100986559e-59
8.463374999999990678e+01 6.496822468489806469e-59
8.484749999999991132e+01 1.089182606352509878e-58
8.506124999999991587e+01 1.444714702799738452e-58
8.527499999999989200e+01 1.604215991586231334e-58
8.548874999999989654e+01 1.458812951064609862e-58
8.570249999999990109e+01 9.287005550216075697e-59
8.591624999999990564e+01 -8.134916175418781875e-61
8.612999999999991019e+01 -1.289824935121228633e-58
8.634374999999991473e+01 -2.754010490597287141e-58
8.655749999999989086e+01 -4.137886397283980104e-58
8.677124999999989541e+01 -5.100882714604702101e-58
8.698499999999989996e+01 -5.273011969612784982e-58
8.719874999999990450e+01 -4.327223216319854047e-58
8.741249999999990905e+01 -2.068126483719685573e-58
8.762624999999991360e+01 1.476929459201728907e-58
8.783999999999991815e+01 5.983939445091607859e-58
8.805374999999989427e+01 1.079807072422452941e-57
8.826749999999989882e+01 1.496094014332494238e-57
8.848124999999990337e+01 1.731501498798032282e-57
8.869499999999990791e+01 1.668919337748696534e-57
8.890874999999991246e+01 1.215304426401432914e-57
8.912249999999991701e+01 3.307610691203337602e-58
8.933624999999989313e+01 -9.438602765656518370e-58
8.954999999999989768e+01 -2.467446508053849478e-57
8.976374999999990223e+01 -3.994302620479143764e-57
8.997749999999990678e+01 -5.191271369299439103e-57
9.019124999999991132e+01 -5.679988813727946810e-57
9.040499999999991587e+01 -5.103743118404173512e-57
9.061874999999989200e+01 -3.212840893830062699e-57
9.083249999999989654e+01 4.374898817263590459e-59
9.104624999999990109e+01 4.438264895270465896e-57
9.125999999999990564e+01 9.416907061610905283e-57
9.147374999999991019e+01 1.410700196614516645e-56
9.168749999999991473e+01 1.739563569096637205e-56
9.190124999999989086e+01 1.808714498966644788e-56
9.211499999999989541e+01 1.513232339443009800e-56
9.232874999999989996e+01 7.904317421680198792e-57
9.254249999999990450e+01 -3.522309209322135030e-57
9.275624999999990905e+01 -1.814820019342943049e-56
9.296999999999991360e+01 -3.394820047735640617e-56
9.318374999999988972e+01 -4.795553809983566559e-56
9.339749999999989427e+01 -5.657542009340937703e-56
9.361124999999989882e+01 -5.613804872653772968e-56
9.382499999999990337e+01 -4.365336632172014619e-56
9.403874999999990791e+01 -1.767438893077061741e-56
9.425249999999991246e+01 2.087795611208816550e-56
9.446624999999988859e+01 6.811606305303411135e-56
9.467999999999989313e+01 1.170145682951565647e-55
9.489374999999989768e+01 1.578445646464634363e-55
9.510749999999990223e+01 1.793213280266206630e-55
9.532124999999990678e+01 1.704589065020079646e-55
9.553499999999991132e+01 1.229740232452139317e-55
9.574874999999988745e+01 3.391490379062303853e-56
9.596249999999989200e+01 -9.196224588323255854e-56
9.617624999999989654e+01 -2.406487400638869148e-55
9.638999999999990109e+01 -3.887646530095511052e-55
9.660374999999990564e+01 -5.053541731582874650e-55
9.681749999999991019e+01 -5.558422452935328796e-55
9.703124999999988631e+01 -5.080294982294608333e-55
9.724499999999989086e+01 -3.395391966732540661e-55
9.745874999999989541e+01 -4.564026047989165883e-56
9.767249999999989996e+01 3.540524872344034164e-55
9.788624999999990450e+01 8.117468751178845940e-55
9.809999999999990905e+01 1.252221436889517944e-54
9.831374999999988518e+01 1.579463735420255789e-54
9.852749999999988972e+01 1.689712679346047115e-54
9.874124999999989427e+01 1.490263547779170093e-54
9.895499999999989882e+01 9.220066780625276994e-55
9.916874999999990337e+01 -1.773747830912611055e-56
9.938249999999990791e+01 -1.256670191046822493e-54
9.959624999999988404e+01 -2.638402999591188704e-54
9.980999999999988859e+01 -3.927622889655530608e-54
1.000237499999998931e+02 -4.832977686014742283e-54
1.002374999999998977e+02 -5.048589570404704049e-54
1.004512499999999022e+02 -4.311592986433755953e-54
1.006649999999999068e+02 -2.469018622839919896e-54
1.008787499999998829e+02 4.566369889579487789e-55
1.010924999999998875e+02 4.216867833229747182e-54
1.013062499999998920e+02 8.316564792234618737e-54
1.015199999999998965e+02 1.203685686754107796e-53
1.017337499999999011e+02 1.451025634374591558e-53
1.019474999999999056e+02 1.484914317583663529e-53
1.021612499999999102e+02 1.231816928409137646e-53
1.023749999999998863e+02 6.529398292957073296e-54
1.025887499999998909e+02 -2.372104268574515396e-54
1.028024999999998954e+02 -1.357250799075442502e-53
1.030162499999999000e+02 -2.554588439052662642e-53
1.032299999999999045e+02 -3.614036732483492611e-53
1.034437499999999091e+02 -4.281618995272948542e-53
1.036574999999998852e+02 -4.303433202179669086e-53
1.038712499999998897e+02 -3.476392405571477033e-53
1.040849999999998943e+02 -1.704306855851202955e-53
1.042987499999998988e+02 9.502806185035736396e-54
1.045124999999999034e+02 4.230153348830847506e-53
1.047262499999999079e+02 7.675371455536454813e-53
1.049399999999998840e+02 1.065316879550142357e-52
1.051537499999998886e+02 1.243131186299010343e-52
1.053674999999998931e+02 1.229342928389271210e-52
1.055812499999998977e+02 9.686004499902802136e-53
1.057949999999999022e+02 4.377317406316738052e-53
1.060087499999999068e+02 -3.399676197371965242e-53
1.062224999999998829e+02 -1.285373832514007456e-52
1.064362499999998875e+02 -2.262436761421820619e-52
1.066499999999998920e+02 -3.088034006580191103e-52
1.068637499999998965e+02 -3.554093822911910586e-52
1.070774999999999011e+02 -3.461259889883609187e-52
1.072912499999999056e+02 -2.660864119232168731e-52
1.075049999999998818e+02 -1.099364897151968720e-52
1.077187499999998863e+02 1.142814106411174850e-52
1.079324999999998909e+02 3.827389085393788361e-52
1.081462499999998954e+02 6.558413925541749733e-52
1.083599999999999000e+02 8.813651527430486120e-52
1.085737499999999045e+02 1.001011807320341528e-51
1.087874999999998806e+02 9.600922084080650940e-52
1.090012499999998852e+02 7.193484256721890162e-52
1.092149999999998897e+02 2.672085311560173555e-52
1.094287499999998943e+02 -3.698167305416504029e-52
1.096424999999998988e+02 -1.121190069625948350e-51
1.098562499999999034e+02 -1.873330527288090420e-51
1.100699999999998795e+02 -2.479351765292815479e-51
1.102837499999998840e+02 -2.778189406447011430e-51
1.104974999999998886e+02 -2.622082802868307098e-51
1.107112499999998931e+02 -1.909427715193306922e-51
1.109249999999998977e+02 -6.180910512467486289e-52
1.111387499999999022e+02 1.167235177234911996e-51
1.113524999999998784e+02 3.240747527662690627e-51
1.115662499999998829e+02 5.280897957601123270e-51
1.117799999999998875e+02 6.880027642806919135e-51
1.119937499999998920e+02 7.599431000545485140e-51
1.122074999999998965e+02 7.046339688880735308e-51
1.124212499999999011e+02 4.963991910656317964e-51
1.126349999999998772e+02 1.320841925612437661e-51
1.128487499999998818e+02 -3.618860870192271124e-51
1.130624999999998863e+02 -9.262311127111518308e-51
1.132762499999998909e+02 -1.471043315362680644e-50
1.134899999999998954e+02 -1.884652730274564749e-50
1.137037499999999000e+02 -2.049276342130710307e-50
1.139174999999998761e+02 -1.862309053827488410e-50
1.141312499999998806e+02 -1.260679632618116925e-50
1.143449999999998852e+02 -2.443621042286106145e-51
1.145587499999998897e+02 1.105807713280606356e-50
1.147724999999998943e+02 2.621113037174540642e-50
1.149862499999998988e+02 4.053156115361920578e-50
1.151999999999998749e+02 5.099956564399412667e-50
1.154137499999998795e+02 5.449866899040960168e-50
1.156274999999998840e+02 4.839703661895499314e-50
1.158412499999998886e+02 3.119691985281879899e-50
1.160549999999998931e+02 3.144106346760613214e-51
1.162687499999998977e+02 -3.333315678782346473e-50
1.164824999999999022e+02 -7.348931396325411821e-50
1.166962499999998784e+02 -1.105418938817217490e-49
1.169099999999998829e+02 -1.364278637529441765e-49
1.171237499999998875e+02 -1.430202591181356972e-49
1.173374999999998920e+02 -1.236948525762963732e-49
1.175512499999998965e+02 -7.503748255212857128e-50
1.177649999999999011e+02 1.602856435738529424e-51
1.179787499999998772e+02 9.906138653376269355e-50
1.181924999999998818e+02 2.041492144928995562e-49
1.184062499999998863e+02 2.985626744019567322e-49
1.186199999999998909e+02 3.610403055682969144e-49
1.188337499999998954e+02 3.706891284356773053e-49
1.190474999999999000e+02 3.111517631639895535e-49
1.192612499999998761e+02 1.750315862022462235e-49
1.194749999999998806e+02 -3.221675773288942205e-50
1.196887499999998852e+02 -2.898363047123805475e-49
1.199024999999998897e+02 -5.616267700244466494e-49
1.201162499999998943e+02 -7.987704496242640034e-49
1.203299999999998988e+02 -9.458816775808552744e-49
1.205437499999998749e+02 -9.499775182450492790e-49
1.207574999999998795e+02 -7.714159146828365770e-49
1.209712499999998840e+02 -3.952058933020334712e-49
1.211849999999998886e+02 1.594093529008726578e-49
1.213987499999998931e+02 8.334260764082390254e-49
1.216124999999998977e+02 1.528778322978001431e-48
1.218262499999998738e+02 2.116801791267197004e-48
1.220399999999998784e+02 2.454908352703451434e-48
1.222537499999998829e+02 2.410440465712774965e-48
1.224674999999998875e+02 1.889004300816425454e-48
1.226812499999998920e+02 8.629887098539357385e-49
1.228949999999998965e+02 -6.052051560462420811e-49
1.231087499999998727e+02 -2.351133000551473328e-48
1.233224999999998772e+02 -4.112787848222335669e-48
1.235362499999998818e+02 -5.555118983004403930e-48
1.237499999999998863e+02 -6.315174646202762079e-48
1.239637499999998909e+02 -6.064620477310121031e-48
1.241774999999998954e+02 -4.582168809782187490e-48
1.243912499999998715e+02 -1.824569205139045596e-48
1.246049999999998761e+02 2.017902928017785725e-48
1.248187499999998806e+02 6.496233267565053983e-48
1.250324999999998852e+02 1.092055058729532110e-47
1.252462499999998897e+02 1.442898590275992930e-47
1.254599999999998943e+02 1.610764480625891282e-47
1.256737499999998704e+02 1.515203701711403414e-47
1.258874999999998749e+02 1.104982410452014186e-47
1.261012499999998795e+02 3.755411014582715186e-48
1.263149999999998840e+02 -6.179188039877481461e-48
1.265287499999998886e+02 -1.755362548770923971e-47
1.267424999999998931e+02 -2.857913738932255804e-47
1.269562499999998693e+02 -3.706631575412675531e-47