2.024999999999579359e-01 -1.928829564785618498e-103
4.162499999999482725e-01 -3.723686964820390236e-103
6.299999999999528200e-01 -5.653912866259093523e-103
8.437499999999573674e-01 -6.972143513002415160e-103
1.057499999999947704e+00 -6.457131387448796037e-103
1.271249999999952252e+00 -2.498699234502113995e-103
1.484999999999956799e+00 6.555559299931670635e-103
1.698749999999947136e+00 2.169321346378060157e-102
1.912499999999951683e+00 4.213906586035875257e-102
2.126249999999956231e+00 6.398325600913944921e-102
2.339999999999946567e+00 7.888768628402931594e-102
2.553749999999951115e+00 7.352371785059046798e-102
2.767499999999955662e+00 3.068674659973582329e-102
2.981249999999945999e+00 -6.681985670353319807e-102
3.194999999999950546e+00 -2.286382643212268723e-101
3.408749999999955094e+00 -4.455310361609587004e-101
3.622499999999945430e+00 -6.757050625355218245e-101
3.836249999999949978e+00 -8.325486313729084028e-101
4.049999999999954525e+00 -7.803780430010590236e-101
4.263749999999944862e+00 -3.473419392129476413e-101
4.477499999999949409e+00 6.344464103142130037e-101
4.691249999999953957e+00 2.254033629438171225e-100
4.904999999999944293e+00 4.412518841805538531e-100
5.118749999999948841e+00 6.695145997769768588e-100
5.332499999999953388e+00 8.261594235363844741e-100
5.546249999999943725e+00 7.816423074941901712e-100
5.759999999999948272e+00 3.742499181501285044e-100
5.973749999999952820e+00 -5.515185743921195486e-100
6.187499999999943157e+00 -2.075546910472897990e-99
6.401249999999947704e+00 -4.103273125499330249e-99
6.614999999999952252e+00 -6.252434786266071183e-99
6.828749999999942588e+00 -7.759054341253577482e-99
7.042499999999947136e+00 -7.457126068605075826e-99
7.256249999999951683e+00 -3.902775385761460689e-99
7.469999999999942020e+00 4.284794400665913384e-99
7.683749999999946567e+00 1.781930832374581654e-98
7.897499999999951115e+00 3.590014104074334410e-98
8.111249999999941451e+00 5.525412966636608613e-98
8.324999999999945999e+00 6.935171782740081992e-98
8.538749999999950546e+00 6.824855617839294701e-98
8.752499999999940883e+00 3.962843248379815343e-98
8.966249999999945430e+00 -2.837447372533085411e-98
9.179999999999949978e+00 -1.422155177627101738e-97
9.393749999999940314e+00 -2.960166376619779909e-97
9.607499999999944862e+00 -4.637479973132402718e-97
9.821249999999949409e+00 -5.927774465938996558e-97
1.003499999999993975e+01 -6.023356745378246996e-97
1.024874999999994429e+01 -3.914037606735202082e-97
1.046249999999994884e+01 1.394516824997505546e-97
1.067624999999993918e+01 1.049431467222753573e-96
1.088999999999994373e+01 2.303205993251132873e-96
1.110374999999994827e+01 3.708855356098157610e-96
1.131749999999993861e+01 4.864968163301333546e-96
1.153124999999994316e+01 5.143610457297251629e-96
1.174499999999994770e+01 3.743425520434585342e-96
1.195874999999993804e+01 -1.520316282644713013e-97
1.217249999999994259e+01 -7.086908141443776656e-96
1.238624999999994714e+01 -1.692137005827115751e-95
1.259999999999993747e+01 -2.834907038917933695e-95
1.281374999999994202e+01 -3.846380770169819781e-95
1.302749999999994657e+01 -4.256960759828109884e-95
1.324124999999995111e+01 -3.448950500001251947e-95
1.345499999999994145e+01 -7.644509163907419408e-96
1.366874999999994600e+01 4.289404606188623255e-95
1.388249999999995055e+01 1.173679033507084412e-94
1.409624999999994088e+01 2.076421127646410005e-94
1.430999999999994543e+01 2.936767363928639992e-94
1.452374999999994998e+01 3.415360165494778037e-94
1.473749999999994031e+01 3.048108619217595271e-94
1.495124999999994486e+01 1.315463505277844960e-94
1.516499999999994941e+01 -2.215926859104246983e-94
1.537874999999993975e+01 -7.674257208737350359e-94
1.559249999999994429e+01 -1.460490797268203286e-93
1.580624999999994884e+01 -2.168747015028623184e-93
1.601999999999993918e+01 -2.654311728814102629e-93
1.623374999999994373e+01 -2.576857641590599839e-93
1.644749999999994827e+01 -1.535625640781668550e-93
1.666124999999993861e+01 8.355175907214950492e-94
1.687499999999994316e+01 4.713313897011861415e-93
1.708874999999994770e+01 9.879962822902097364e-93
1.730249999999993804e+01 1.550168990219780365e-92
1.751624999999994259e+01 1.995660869896438313e-92
1.772999999999994714e+01 2.080953510586148285e-92
1.794374999999993747e+01 1.505321309062657290e-92
1.815749999999994202e+01 -2.685627141116648691e-94
1.837124999999994657e+01 -2.698822859966835890e-92
1.858499999999993690e+01 -6.433210171894063366e-92
1.879874999999994145e+01 -1.072427474702509297e-91
1.901249999999994600e+01 -1.449497266029886092e-91
1.922624999999993634e+01 -1.604763621361972353e-91
1.943999999999994088e+01 -1.319530857634053755e-91
1.965374999999994543e+01 -3.661914157281687792e-92
1.986749999999993577e+01 1.418980747955580883e-91
2.008124999999994031e+01 4.031549566626729847e-91
2.029499999999994486e+01 7.176483805568909328e-91
2.050874999999993520e+01 1.015713595034330075e-90
2.072249999999993975e+01 1.182293613621053255e-90
2.093624999999994429e+01 1.063716680965527602e-90
2.114999999999993463e+01 4.928885390301180099e-91
2.136374999999993918e+01 -6.624864432232772662e-91
2.157749999999994373e+01 -2.428765830211021576e-90
2.179124999999993406e+01 -4.640537545352350683e-90
2.200499999999993861e+01 -6.859416529598716635e-90
2.221874999999994316e+01 -8.329095882614277249e-90
2.243249999999993349e+01 -8.008328628675012289e-90
2.264624999999993804e+01 -4.726154412170534996e-90
2.285999999999994259e+01 2.507307933145909419e-90
2.307374999999993292e+01 1.403164260049625467e-89
2.328749999999993747e+01 2.895868119425539690e-89
2.350124999999994202e+01 4.461000442321911125e-89
2.371499999999993236e+01 5.617408869898350782e-89
2.392874999999993690e+01 5.685527414542837768e-89
2.414249999999994145e+01 3.880693605612611463e-89
2.435624999999993179e+01 -4.925734452165808980e-90
2.456999999999993634e+01 -7.741922741692509480e-89
2.478374999999994088e+01 -1.741424845098484366e-88
2.499749999999993122e+01 -2.792478397474805561e-88
2.521124999999993577e+01 -3.631611406404145138e-88
2.542499999999994031e+01 -3.831796434863426151e-88
2.563874999999993065e+01 -2.889229727852648438e-88
2.585249999999993520e+01 -3.408128812473547866e-89
2.606624999999993975e+01 4.052592493199858237e-88
2.627999999999994429e+01 1.007475039434836274e-87
2.649374999999993463e+01 1.682018658188620496e-87
2.670749999999993918e+01 2.253492844554915126e-87
2.692124999999994373e+01 2.463501217202720912e-87
2.713499999999993406e+01 2.001450620382766213e-87
2.734874999999993861e+01 5.731431992048039490e-88
2.756249999999994316e+01 -1.990842536145152301e-87
2.777624999999993349e+01 -5.596963322316726910e-87
2.798999999999993804e+01 -9.747145749592686596e-87
2.820374999999994259e+01 -1.343858091202463452e-86
2.841749999999993292e+01 -1.516486882774991440e-86
2.863124999999993747e+01 -1.308365825471226778e-86
2.884499999999994202e+01 -5.402808470786627660e-87
2.905874999999993236e+01 9.001602931268472690e-87
2.927249999999993690e+01 2.978984662584599109e-86
2.948624999999994145e+01 5.433292447418594688e-86
2.969999999999993179e+01 7.710717360722205543e-86
2.991374999999993634e+01 8.964562231860085728e-86
3.012749999999994088e+01 8.141283523327014874e-86
3.034124999999993122e+01 4.189951905850892409e-86
3.055499999999993577e+01 -3.597757176406440884e-86
3.076874999999994031e+01 -1.514541988232831676e-85
3.098249999999993065e+01 -2.912653223622584932e-85
3.119624999999993520e+01 -4.261121826840130605e-85
3.140999999999993975e+01 -5.100744701942503998e-85
3.162374999999993008e+01 -4.849671390520749907e-85
3.183749999999993463e+01 -2.912814882049768709e-85
3.205124999999993918e+01 1.137533931068499840e-85
3.226499999999992951e+01 7.323959915302397245e-85
3.247874999999993406e+01 1.500979962690805259e-84
3.269249999999993861e+01 2.269917681830182075e-84
3.290624999999992895e+01 2.798700747357641264e-84
3.311999999999993349e+01 2.776484303371549225e-84
3.333374999999993804e+01 1.877104169327979179e-84
3.354749999999992838e+01 -1.481824646206236040e-85
3.376124999999993292e+01 -3.346825558106272539e-84
3.397499999999993747e+01 -7.430221111390921761e-84
3.418874999999992781e+01 -1.166364369135883112e-83
3.440249999999993236e+01 -1.482968171463841490e-83
3.461624999999993690e+01 -1.531973067528717033e-83
3.482999999999992724e+01 -1.140022717911781483e-83
3.504374999999993179e+01 -1.673370151014646649e-84
3.525749999999993634e+01 1.429658515378211545e-83
3.547124999999992667e+01 3.528821193098993861e-83
3.568499999999993122e+01 5.783279948100306967e-83
3.589874999999993577e+01 7.597090314949130675e-83
3.611249999999992610e+01 8.162966470873723901e-83
3.632624999999993065e+01 6.586195096814324018e-83
3.653999999999993520e+01 2.106270668182569888e-83
3.675374999999992554e+01 -5.595434713851302535e-83
3.696749999999993008e+01 -1.604647460154676910e-82
3.718124999999993463e+01 -2.767493296677321602e-82
3.739499999999992497e+01 -3.765828708992983950e-82
3.760874999999992951e+01 -4.206399100084297051e-82
3.782249999999993406e+01 -3.640365518575636832e-82
3.803624999999993861e+01 -1.666626538116116453e-82
3.824999999999994316e+01 1.921174747788289562e-82
3.846374999999991928e+01 6.963657166503368034e-82
3.867749999999992383e+01 1.277856951531053956e-81
3.889124999999992838e+01 1.807221041978486504e-81
3.910499999999993292e+01 2.098385385072559320e-81
3.931874999999993747e+01 1.932350652938435697e-81
3.953249999999994202e+01 1.103892261292349786e-81
3.974624999999991815e+01 -5.100679641830553148e-82
3.995999999999992269e+01 -2.868800969099494213e-81
4.017374999999992724e+01 -5.689724532213928589e-81
4.038749999999993179e+01 -8.399023964042074885e-81
4.060124999999993634e+01 -1.014114350137732119e-80
4.081499999999994088e+01 -9.876363525116784827e-81
4.102874999999991701e+01 -6.585527619237760597e-81
4.124249999999992156e+01 4.202640508862632672e-82
4.145624999999992610e+01 1.111921622090555136e-80
4.166999999999993065e+01 2.440105060585360832e-80
4.188374999999993520e+01 3.780386940857460191e-80
4.209749999999993975e+01 4.750406205078667357e-80
4.231124999999991587e+01 4.869757720072914495e-80
4.252499999999992042e+01 3.647031283928152176e-80
4.273874999999992497e+01 7.164708416403954335e-81
4.295249999999992951e+01 -3.989114826982707381e-80
4.316624999999993406e+01 -1.006018146379100164e-79
4.337999999999993861e+01 -1.647590789083993813e-79
4.359374999999991473e+01 -2.157527742719057800e-79
4.380749999999991928e+01 -2.319776109689277057e-79
4.402124999999992383e+01 -1.904205134046432774e-79
4.423499999999992838e+01 -7.253609415103064030e-80
4.444874999999993292e+01 1.280867105362538124e-79
4.466249999999993747e+01 3.975395174101060301e-79
4.487624999999991360e+01 6.949747330432929418e-79
4.508999999999991815e+01 9.502656232989680513e-79
4.530374999999992269e+01 1.068835469547914599e-78
4.551749999999992724e+01 9.459786444368856090e-79
4.573124999999993179e+01 4.914707476773299203e-79
4.594499999999993634e+01 -3.372733240896677911e-79
4.615874999999991246e+01 -1.498574271136724650e-78
4.637249999999991701e+01 -2.835068998639565375e-78
4.658624999999992156e+01 -4.059111903458239563e-78
4.679999999999992610e+01 -4.767730950165274224e-78
4.701374999999993065e+01 -4.497923248816924402e-78
4.722749999999993520e+01 -2.827060653512588106e-78
4.744124999999993975e+01 4.872385753781389873e-79
4.765499999999991587e+01 5.347476791579059143e-78
4.786874999999992042e+01 1.117211995352064572e-77
4.808249999999992497e+01 1.681547340596901171e-77
4.829624999999992951e+01 2.060635703867577749e-77
4.850999999999993406e+01 2.055413125798023048e-77
4.872374999999993861e+01 1.474755936911574259e-77
4.893749999999991473e+01 1.930241453740070919e-78
4.915124999999991928e+01 -1.782151719102553243e-77
4.936499999999992383e+01 -4.245812983372513720e-77
4.957874999999992838e+01 -6.755174337384055079e-77
4.979249999999993292e+01 -8.635669980550746871e-77
5.000624999999993747e+01 -9.054766478162621549e-77
5.021999999999991360e+01 -7.176168433875175215e-77
5.043374999999991815e+01 -2.390694758388552844e-77
5.064749999999992269e+01 5.403179753878931211e-77
5.086124999999992724e+01 1.552317234679082803e-76
5.107499999999993179e+01 2.631053588214998557e-76
5.128874999999993634e+01 3.511506534581496965e-76
5.150249999999991246e+01 3.854796084788305965e-76
5.171624999999991701e+01 3.306167148618873037e-76
5.192999999999992156e+01 1.585333887639722580e-76
5.214374999999992610e+01 -1.400310511508135052e-76
5.235749999999993065e+01 -5.440011613821364982e-76
5.257124999999993520e+01 -9.932327043497870849e-76
5.278499999999991132e+01 -1.386382962970881123e-75
5.299874999999991587e+01 -1.589116406353427443e-75
5.321249999999992042e+01 -1.455292022944561666e-75
5.342624999999992497e+01 -8.614461212361809846e-76
5.363999999999992951e+01 2.486358925963636262e-76
5.385374999999993406e+01 1.816757428612906794e-75
5.406749999999991019e+01 3.632296181576920498e-75
5.428124999999991473e+01 5.318065159109543973e-75
5.449499999999991928e+01 6.355109600915653275e-75
5.470874999999992383e+01 6.157844338074982897e-75
5.492249999999992838e+01 4.202444790375027078e-75
5.513624999999993292e+01 1.981708952266244083e-76
5.534999999999990905e+01 -5.725231065630146666e-75
5.556374999999991360e+01 -1.285772328247443503e-74
5.577749999999991815e+01 -1.983306599067412218e-74
5.599124999999992269e+01 -2.469614095076785059e-74
5.620499999999992724e+01 -2.516108012822562383e-74
5.641874999999993179e+01 -1.907763551352551879e-74
5.663249999999990791e+01 -5.074567412927562260e-75
5.684624999999991246e+01 1.671351744185422131e-74
5.705999999999991701e+01 4.399471225018488573e-74
5.727374999999992156e+01 7.195431985164166249e-74
5.748749999999992610e+01 9.340394125819901437e-74
5.770124999999993065e+01 9.963796996967571543e-74
5.791499999999990678e+01 8.208616769618586208e-74
5.812874999999991132e+01 3.467598029519589745e-74
5.834249999999991587e+01 -4.341203310403840553e-74
5.855624999999992042e+01 -1.451602974223026860e-73
5.876999999999992497e+01 -2.540731380443050587e-73
5.898374999999992951e+01 -3.443408953121990780e-73
5.919749999999990564e+01 -3.835711727054678722e-73
5.941124999999991019e+01 -3.384992085825254195e-73
5.962499999999991473e+01 -1.834735232239071831e-73
5.983874999999991928e+01 8.932079680627517216e-74
6.005249999999992383e+01 4.598628940008270548e-73
6.026624999999992838e+01 8.732890548266066450e-73
6.047999999999990450e+01 1.239066598701050455e-72
6.069374999999990905e+01 1.439291192058905368e-72
6.090749999999991360e+01 1.347910176062210303e-72
6.112124999999991815e+01 8.605551430123630601e-73
6.133499999999992269e+01 -6.829370978850129071e-74
6.154874999999992724e+01 -1.387468315302857211e-72
6.176249999999993179e+01 -2.920335905959947154e-72
6.197624999999990791e+01 -4.356654784929791245e-72
6.218999999999991246e+01 -5.276191074820176663e-72
6.240374999999991701e+01 -5.211642686808489365e-72
6.261749999999992156e+01 -3.751289102354441036e-72
6.283124999999992610e+01 -6.714728748443585397e-73
6.304499999999993065e+01 3.923120461283010793e-72
6.325874999999990678e+01 9.484959685198357029e-72
6.347249999999991132e+01 1.497616147308676138e-71
6.368624999999991587e+01 1.892926176265039300e-71
6.389999999999992042e+01 1.964677511433939917e-71
6.411374999999992497e+01 1.554666404737439765e-71
6.432749999999992951e+01 5.625613346349674272e-72
6.454124999999990564e+01 -1.003084277820401020e-71
6.475499999999991019e+01 -2.980475633470194218e-71
6.496874999999991473e+01 -5.031297522490678643e-71
6.518249999999991928e+01 -6.653547743073730446e-71
6.539624999999992383e+01 -7.242465519061432259e-71
6.560999999999992838e+01 -6.204070893516270414e-71
6.582374999999990450e+01 -3.114040975149319999e-71
6.603749999999990905e+01 2.100209202963132659e-71
6.625124999999991360e+01 8.991720052975238889e-71
6.646499999999991815e+01 1.648998510698405971e-70
6.667874999999992269e+01 2.291453351125298126e-70
6.689249999999992724e+01 2.615197071146178687e-70
6.710624999999990337e+01 2.401926946571472928e-70
6.731999999999990791e+01 1.479750798324231223e-70
6.753374999999991246e+01 -2.130326911000091072e-71
6.774749999999991701e+01 -2.565833056255965421e-70
6.796124999999992156e+01 -5.252026934405155359e-70
6.817499999999992610e+01 -7.722462945794455339e-70
6.838874999999990223e+01 -9.253362927549737325e-70
6.860249999999990678e+01 -9.058914574965047430e-70
6.881624999999991132e+01 -6.466528893337527866e-70
6.902999999999991587e+01 -1.135860464301058707e-70
6.924374999999992042e+01 6.716288763727882805e-70
6.945749999999992497e+01 1.614015033215060298e-69
6.967124999999990109e+01 2.539128928633275704e-69
6.988499999999990564e+01 3.204567024852847679e-69
7.009874999999991019e+01 3.333483058099094720e-69
7.031249999999991473e+01 2.670630816388302463e-69
7.052624999999991928e+01 1.055942369866011943e-69
7.073999999999992383e+01 -1.495825126407837072e-69
7.095374999999989996e+01 -4.727042466448833781e-69
7.116749999999990450e+01 -8.102675774142001614e-69
7.138124999999990905e+01 -1.083161231819627975e-68
7.159499999999991360e+01 -1.196115758288366467e-68
7.180874999999991815e+01 -1.055059822301897202e-68
7.202249999999992269e+01 -5.912232230168700983e-69
7.223624999999989882e+01 2.113336952384545834e-69
7.244999999999990337e+01 1.290278307857530812e-68
7.266374999999990791e+01 2.488856337599366043e-68
7.287749999999991246e+01 3.556803714903139141e-68
7.309124999999991701e+01 4.174937777550492827e-68
7.330499999999992156e+01 4.006787253711790859e-68
7.351874999999989768e+01 2.775231492994465870e-68
7.373249999999990223e+01 3.550992542526637500e-69
7.394624999999990678e+01 -3.134873180250619460e-68
7.415999999999991132e+01 -7.263741600934782023e-68
7.437374999999991587e+01 -1.126997698335131346e-67
7.458749999999992042e+01 -1.411731404276300844e-67
7.480124999999992497e+01 -1.464039746843514447e-67
7.501499999999990109e+01 -1.177981496086358030e-67
7.522874999999990564e+01 -4.883979864557821191e-68
7.544249999999991019e+01 5.969892230533063260e-68
7.565624999999991473e+01 1.970679003947847876e-67
7.586999999999991928e+01 3.412295154231877423e-67
7.608374999999992383e+01 4.597875514021066104e-67
7.629749999999989996e+01 5.137999120246757146e-67
7.651124999999990450e+01 4.646685935501445885e-67
7.672499999999990905e+01 2.836276716117762785e-67
7.693874999999991360e+01 -3.746441257405763666e-68
7.715249999999991815e+01 -4.761347466548414541e-67
7.736624999999992269e+01 -9.728281350752791613e-67
7.757999999999989882e+01 -1.430872345150042009e-66
7.779374999999990337e+01 -1.725348805396118828e-66
7.800749999999990791e+01 -1.722141948385640924e-66
7.822124999999991246e+01 -1.306482281926793619e-66
7.843499999999991701e+01 -4.177662644663191988e-67
7.864874999999992156e+01 9.152781988391125988e-67
7.886249999999989768e+01 2.547327427273120848e-66
7.907624999999990223e+01 4.206561529149200471e-66
7.928999999999990678e+01 5.511009008696461676e-66
7.950374999999991132e+01 6.017111369569414505e-66
7.971749999999991587e+01 5.301083469652804234e-66
7.993124999999992042e+01 3.066114396153402124e-66
8.014499999999989654e+01 -7.402113363202217245e-67
8.035874999999990109e+01 -5.822062361081257308e-66
8.057249999999990564e+01 -1.147444011242217829e-65
8.078624999999991019e+01 -1.659527014386044490e-65
8.099999999999991473e+01 -1.979452662493582562e-65
8.121374999999991928e+01 -1.961054371510719353e-65
8.142749999999989541e+01 -1.482241756161661346e-65
8.164124999999989996e+01 -4.821072126536535703e-66
8.185499999999990450e+01 1.002554576472589255e-65
8.206874999999990905e+01 2.809955250237517806e-65
8.228249999999991360e+01 4.644863001021065741e-65
8.249624999999991815e+01 6.097711008306078632e-65
8.270999999999989427e+01 6.696762019102896899e-65
8.292374999999989882e+01 5.993210981229780230e-65
8.313749999999990337e+01 3.671542832678969270e-65
8.335124999999990791e+01 -3.310003398472503882e-66
8.356499999999991246e+01 -5.719730909832774538e-65
8.377874999999991701e+01 -1.178150529520347331e-64
8.399249999999989313e+01 -1.739649268340714520e-64
8.420624999999989768e+01 -2.114552181762496820e-64
8.441999999999990223e+01 -2.152219964789994156e-64
8.463374999999990678e+01 -1.723866718678325140e-64
8.484749999999991132e+01 -7.589093756822325105e-65
8.506124999999991587e+01 7.190139746755282302e-65
8.527499999999989200e+01 2.564466951661458796e-64
8.548874999999989654e+01 4.500067577105693850e-64
8.570249999999990109e+01 6.131941736449023066e-64
8.591624999999990564e+01 6.996053964062663072e-64
8.612999999999991019e+01 6.635675506076044278e-64
8.634374999999991473e+01 4.703518276079590918e-64
8.655749999999989086e+01 1.074533267842202501e-64
8.677124999999989541e+01 -4.051571254799945729e-64
8.698499999999989996e+01 -1.008369236307823045e-63
8.719874999999990450e+01 -1.603480114479569064e-63
8.741249999999990905e+01 -2.060091469203599309e-63
8.762624999999991360e+01 -2.233399666828318692e-63
8.783999999999991815e+01 -1.990251007018579249e-63
8.805374999999989427e+01 -1.241268432552874936e-63
8.826749999999989882e+01 2.579024010092586800e-65
8.848124999999990337e+01 1.718078854901030849e-63
8.869499999999990791e+01 3.622710682358549523e-63
8.890874999999991246e+01 5.412070590397259334e-63
8.912249999999991701e+01 6.674704639733383378e-63
8.933624999999989313e+01 6.973450536522961424e-63
8.954999999999989768e+01 5.927368750203235165e-63
8.976374999999990223e+01 3.308093474236190307e-63
8.997749999999990678e+01 -8.645873146117649746e-64
9.019124999999991132e+01 -6.247573145116523984e-63
9.040499999999991587e+01 -1.214117977992888320e-62
9.061874999999989200e+01 -1.751726556723473295e-62
9.083249999999989654e+01 -2.112184853382345288e-62
9.104624999999990109e+01 -2.165443302047894085e-62
9.125999999999990564e+01 -1.801181501019163830e-62
9.147374999999991019e+01 -9.567929253098944925e-63
9.168749999999991473e+01 3.554013996993990839e-63
9.190124999999989086e+01 2.027209961888790559e-62
9.211499999999989541e+01 3.845791388280268606e-62
9.232874999999989996e+01 5.502321913343512591e-62
9.254249999999990450e+01 6.621625729191529435e-62
9.275624999999990905e+01 6.813377005585455765e-62
9.296999999999991360e+01 5.741663285669046990e-62
9.318374999999988972e+01 3.205416350263732499e-62
9.339749999999989427e+01 -7.818927807486509726e-63
9.361124999999989882e+01 -5.928069120118916675e-62
9.382499999999990337e+01 -1.162973677882321921e-61
9.403874999999990791e+01 -1.698685081492084310e-61
9.425249999999991246e+01 -2.087556021421600462e-61
9.446624999999988859e+01 -2.208395101168981558e-61
9.467999999999989313e+01 -1.950567944466864541e-61
9.489374999999989768e+01 -1.237513747030088608e-61
9.510749999999990223e+01 -5.158740874892975136e-63
9.532124999999990678e+01 1.543676678978817142e-61
9.553499999999991132e+01 3.388544974308809980e-61
9.574874999999988745e+01 5.224214391779940307e-61
9.596249999999989200e+01 6.706519753252610613e-61
9.617624999999989654e+01 7.439305194353578980e-61
9.638999999999990109e+01 7.028263502491807408e-61
9.660374999999990564e+01 5.152863733733160157e-61
9.681749999999991019e+01 1.650088511817798470e-61
9.703124999999988631e+01 -3.400545960563922206e-61
9.724499999999989086e+01 -9.605246768570422983e-61
9.745874999999989541e+01 -1.621509358359941984e-60
9.767249999999989996e+01 -2.213485893584538587e-60
9.788624999999990450e+01 -2.599856723225668705e-60
9.809999999999990905e+01 -2.632338243548196380e-60
9.831374999999988518e+01 -2.174357796806310664e-60
9.852749999999988972e+01 -1.131212177992752145e-60
9.874124999999989427e+01 5.160375816548484623e-61
9.895499999999989882e+01 2.677904933339005133e-60
9.916874999999990337e+01 5.131819075424599529e-60
9.938249999999990791e+01 7.513467944880216375e-60
9.959624999999988404e+01 9.332303984512073289e-60
9.980999999999988859e+01 1.001796502550994908e-59
1.000237499999998931e+02 9.000985122998682574e-60
1.002374999999998977e+02 5.825664290749248912e-60
1.004512499999999022e+02 2.855545072770764050e-61
1.006649999999999068e+02 -7.436568750573249034e-60
1.008787499999998829e+02 -1.665084212315260046e-59
1.010924999999998875e+02 -2.609764026499058815e-59
1.013062499999998920e+02 -3.397547243322292915e-59
1.015199999999998965e+02 -3.809065969373021765e-59
1.017337499999999011e+02 -3.614751367860728610e-59
1.019474999999999056e+02 -2.617609225640337594e-59
1.021612499999999102e+02 -7.064596526797678536e-60
1.023749999999998863e+02 2.087196472043722384e-59
1.025887499999998909e+02 5.539073717817280480e-59
1.028024999999998954e+02 9.201951675466247380e-59
1.030162499999999000e+02 1.240980857016784227e-58
1.032299999999999045e+02 1.432912261883746535e-58
1.034437499999999091e+02 1.406544625282071219e-58
1.036574999999998852e+02 1.082492135615426077e-58
1.038712499999998897e+02 4.118641007297039536e-59
1.040849999999998943e+02 -6.016138023548518133e-59
1.042987499999998988e+02 -1.881783965973954608e-58
1.045124999999999034e+02 -3.267631618809358224e-58
1.047262499999999079e+02 -4.513777783398384506e-58
1.049399999999998840e+02 -5.308857403292454598e-58
1.051537499999998886e+02 -5.314907759171080603e-58
1.053674999999998931e+02 -4.227659523910395351e-58
1.055812499999998977e+02 -1.853145792892426585e-58
1.057949999999999022e+02 1.809204488154214519e-58
1.060087499999999068e+02 6.492019709817936789e-58
1.062224999999998829e+02 1.161302893285198637e-57
1.064362499999998875e+02 1.627624725156013797e-57
1.066499999999998920e+02 1.933956693513144619e-57
1.068637499999998965e+02 1.955995742601522112e-57
1.070774999999999011e+02 1.581531683264987173e-57
1.072912499999999056e+02 7.385399147606145631e-58
1.075049999999998818e+02 -5.744990411802898403e-58
1.077187499999998863e+02 -2.261607424239212603e-57
1.079324999999998909e+02 -4.112604458946433258e-57
1.081462499999998954e+02 -5.804103673266172772e-57
1.083599999999999000e+02 -6.924684307631453408e-57
1.085737499999999045e+02 -7.028029295946005052e-57
1.087874999999998806e+02 -5.713328395014857215e-57
1.090012499999998852e+02 -2.726210371817523402e-57
1.092149999999998897e+02 1.933399841769257885e-57
1.094287499999998943e+02 7.916653454847888865e-57
1.096424999999998988e+02 1.446925275781789362e-56
1.098562499999999034e+02 2.043910101420632525e-56
1.100699999999998795e+02 2.437031384983624457e-56
1.102837499999998840e+02 2.469574634235113065e-56
1.104974999999998886e+02 2.002386743907765826e-56
1.107112499999998931e+02 9.494345712811626846e-57
1.109249999999998977e+02 -6.847236767178788599e-57
1.111387499999999022e+02 -2.772737626841637088e-56
1.113524999999998784e+02 -5.046238263646014363e-56
1.115662499999998829e+02 -7.100524148579960213e-56
1.117799999999998875e+02 -8.429527484367727200e-56
1.119937499999998920e+02 -8.494724774143592629e-56
1.122074999999998965e+02 -6.825832841701965598e-56
1.124212499999999011e+02 -3.143649919282646959e-56
1.126349999999998772e+02 2.512751178553344365e-56
1.128487499999998818e+02 9.679610169154049163e-56
1.130624999999998863e+02 1.741265685206595740e-55
1.132762499999998909e+02 2.431175655850191914e-55
1.134899999999998954e+02 2.864968749181312198e-55
1.137037499999999000e+02 2.861528356241842361e-55
1.139174999999998761e+02 2.266078929000316822e-55
1.141312499999998806e+02 9.917758431684237868e-56
1.143449999999998852e+02 -9.381247433573745467e-56
1.145587499999998897e+02 -3.356137424124863555e-55
1.147724999999998943e+02 -5.934444972290487406e-55
1.149862499999998988e+02 -8.196549853847756071e-55
1.151999999999998749e+02 -9.564015212043636863e-55
1.154137499999998795e+02 -9.440854265354548933e-55
1.156274999999998840e+02 -7.331137022037307505e-55
1.158412499999998886e+02 -2.976877015786782992e-55
1.160549999999998931e+02 3.505500103329704948e-55
1.162687499999998977e+02 1.151906466984507237e-54
1.164824999999999022e+02 1.994333710127881015e-54
1.166962499999998784e+02 2.718510676674772119e-54
1.169099999999998829e+02 3.134498668531171612e-54
1.171237499999998875e+02 3.050495903411901543e-54
1.173374999999998920e+02 2.311872860683575901e-54
1.175512499999998965e+02 8.459014857460223615e-55
1.177649999999999011e+02 -1.295167316947086427e-54
1.179787499999998772e+02 -3.902190570879243009e-54
1.181924999999998818e+02 -6.598817063578182998e-54
1.184062499999998863e+02 -8.862256414768503723e-54
1.186199999999998909e+02 -1.008137783797071753e-53
1.188337499999998954e+02 -9.652739059418230038e-54
1.190474999999999000e+02 -7.107469974977819276e-54
1.192612499999998761e+02 -2.253145747219181353e-54
1.194749999999998806e+02 4.693660252739232468e-54
1.196887499999998852e+02 1.301467522621479272e-53
1.199024999999998897e+02 2.146956860453895918e-53
1.201162499999998943e+02 2.837629438612214469e-53
1.203299999999998988e+02 3.180909750304676054e-53
1.205437499999998749e+02 2.991245043469113142e-53
1.207574999999998795e+02 2.130465316600967542e-53
1.209712499999998840e+02 5.517627192040408804e-54
1.211849999999998886e+02 -1.660567162870395025e-53
1.213987499999998931e+02 -4.265190971892974647e-53
1.216124999999998977e+02 -6.861474231773095033e-53
1.218262499999998738e+02 -8.919107647983261029e-53
1.220399999999998784e+02 -9.843962893122202757e-53
1.222537499999998829e+02 -9.078480478992555848e-53
1.224674999999998875e+02 -6.227243302093767986e-53
1.226812499999998920e+02 -1.190186054908823333e-53
1.228949999999998965e+02 5.721353456958404357e-53
1.231087499999998727e+02 1.371501702773296783e-52
1.233224999999998772e+02 2.152342687635450341e-52
1.235362499999998818e+02 2.750887484125375287e-52
1.237499999999998863e+02 2.987696548830005295e-52
1.239637499999998909e+02 2.699047999304293875e-52
1.241774999999998954e+02 1.775146581127243455e-52
1.243912499999998715e+02 1.995453102443418693e-53
1.246049999999998761e+02 -1.917857028262882892e-52
1.248187499999998806e+02 -4.322986177225600750e-52
1.250324999999998852e+02 -6.623344220776674609e-52
1.252462499999998897e+02 -8.323605702181019591e-52
1.254599999999998943e+02 -8.893217568487796279e-52
1.256737499999998704e+02 -7.862334407081809809e-52
1.258874999999998749e+02 -4.935519127007846258e-52
1.261012499999998795e+02 -1.057383752341839005e-53
1.263149999999998840e+02 6.254311679967357547e-52
1.265287499999998886e+02 1.334904522540423847e-51
1.267424999999998931e+02 1.998862758336273519e-51