2.024999999999579359e-01 -9.237417499978002777e-104
4.162499999999482725e-01 1.023615902821570061e-103
6.299999999999528200e-01 4.470862444132634871e-103
8.437499999999573674e-01 9.366998432481210533e-103
1.057499999999947704e+00 1.496107081206775223e-102
1.271249999999952252e+00 1.945241751962516907e-102
1.484999999999956799e+00 1.977022865174488569e-102
1.698749999999947136e+00 1.170493741778704758e-102
1.912499999999951683e+00 -9.330601185791842648e-103
2.126249999999956231e+00 -4.664766143134246329e-102
2.339999999999946567e+00 -9.961915564053554300e-102
2.553749999999951115e+00 -1.602240003081185359e-101
2.767499999999955662e+00 -2.095607491346477273e-101
2.981249999999945999e+00 -2.158114313510334685e-101
3.194999999999950546e+00 -1.358726909915219130e-101
3.408749999999955094e+00 7.667620483545480358e-102
3.622499999999945430e+00 4.548799668533069308e-101
3.836249999999949978e+00 9.921522564338613699e-101
4.049999999999954525e+00 1.608920542929878440e-100
4.263749999999944862e+00 2.119829600872767988e-100
4.477499999999949409e+00 2.215748357624818778e-100
4.691249999999953957e+00 1.481260676556944863e-100
4.904999999999944293e+00 -5.282061535652478596e-101
5.118749999999948841e+00 -4.128963704010959332e-100
5.332499999999953388e+00 -9.265761765345982222e-100
5.546249999999943725e+00 -1.520737057741639792e-99
5.759999999999948272e+00 -2.025214625088053954e-99
5.973749999999952820e+00 -2.157172960389582294e-99
6.187499999999943157e+00 -1.537476510213014776e-99
6.401249999999947704e+00 2.401496538348391146e-100
6.614999999999952252e+00 3.469932043748562633e-99
6.828749999999942588e+00 8.120996781295564557e-99
7.042499999999947136e+00 1.357273266690426666e-98
7.256249999999951683e+00 1.835985705537644990e-98
7.469999999999942020e+00 2.003562553414239624e-98
7.683749999999946567e+00 1.530512035226129053e-98
7.897499999999951115e+00 6.004416663725288412e-100
8.111249999999941451e+00 -2.676097388878283258e-98
8.324999999999945999e+00 -6.680376089586747379e-98
8.538749999999950546e+00 -1.146878082237101707e-97
8.752499999999940883e+00 -1.585597770792234736e-97
8.966249999999945430e+00 -1.783311096016108494e-97
9.179999999999949978e+00 -1.465969907452479075e-97
9.393749999999940314e+00 -3.307365398959525190e-98
9.607499999999944862e+00 1.862951720316377964e-97
9.821249999999949409e+00 5.152496682418655240e-97
1.003499999999993975e+01 9.194459914217338321e-97
1.024874999999994429e+01 1.308713545145705266e-96
1.046249999999994884e+01 1.525953287606626756e-96
1.067624999999993918e+01 1.352036318244157591e-96
1.088999999999994373e+01 5.374994666886605041e-97
1.110374999999994827e+01 -1.129570001654485213e-96
1.131749999999993861e+01 -3.715995572870085843e-96
1.153124999999994316e+01 -7.004630027559662839e-96
1.174499999999994770e+01 -1.035029487373121287e-95
1.195874999999993804e+01 -1.257884129061664664e-95
1.217249999999994259e+01 -1.199936083464961065e-95
1.238624999999994714e+01 -6.612772905360238084e-96
1.259999999999993747e+01 5.406555377047325865e-96
1.281374999999994202e+01 2.491856785587696067e-95
1.302749999999994657e+01 5.075944328085873776e-95
1.324124999999995111e+01 7.859178268463181664e-95
1.345499999999994145e+01 1.000031324541824683e-94
1.366874999999994600e+01 1.023645085166833365e-94
1.388249999999995055e+01 7.008125085995091005e-95
1.409624999999994088e+01 -1.214310854620495300e-95
1.430999999999994543e+01 -1.536495291880789343e-94
1.452374999999994998e+01 -3.499496473881297651e-94
1.473749999999994031e+01 -5.737306405386828820e-94
1.495124999999994486e+01 -7.670625318287993149e-94
1.516499999999994941e+01 -8.384724378070408633e-94
1.537874999999993975e+01 -6.696152290927855043e-94
1.559249999999994429e+01 -1.364747426947027394e-94
1.580624999999994884e+01 8.513496602999127969e-94
1.601999999999993918e+01 2.293392386892826952e-93
1.623374999999994373e+01 4.029641660890577536e-93
1.644749999999994827e+01 5.675924207839165017e-93
1.666124999999993861e+01 6.589114790639205891e-93
1.687499999999994316e+01 5.896868253632961978e-93
1.708874999999994770e+01 2.630022680992867797e-93
1.730249999999993804e+01 -4.011566465119977362e-93
1.751624999999994259e+01 -1.425277972521697180e-92
1.772999999999994714e+01 -2.723368297785796383e-92
1.794374999999993747e+01 -4.049785477773760132e-92
1.815749999999994202e+01 -4.965617249693663325e-92
1.837124999999994657e+01 -4.847459323805379699e-92
1.858499999999993690e+01 -2.967084577440783641e-92
1.879874999999994145e+01 1.333186551321350471e-92
1.901249999999994600e+01 8.359749536068463089e-92
1.922624999999993634e+01 1.770171755224230155e-91
1.943999999999994088e+01 2.784448116178257315e-91
1.965374999999994543e+01 3.588257113482580566e-91
1.986749999999993577e+01 3.750486249064554879e-91
2.008124999999994031e+01 2.745684044201434562e-91
2.029499999999994486e+01 6.677331104307191701e-93
2.050874999999993520e+01 -4.586474983028898856e-91
2.072249999999993975e+01 -1.105360532404248706e-90
2.093624999999994429e+01 -1.843498715002488214e-90
2.114999999999993463e+01 -2.486739433819374305e-90
2.136374999999993918e+01 -2.747033695387221412e-90
2.157749999999994373e+01 -2.260439955864767242e-90
2.179124999999993406e+01 -6.575839485474188377e-91
2.200499999999993861e+01 2.313698771074944277e-90
2.221874999999994316e+01 6.618651621378925308e-90
2.243249999999993349e+01 1.174381853892941628e-89
2.264624999999993804e+01 1.653349155870367117e-89
2.285999999999994259e+01 1.913040183235230693e-89
2.307374999999993292e+01 1.711421545554226325e-89
2.328749999999993747e+01 7.928966844255486856e-90
2.350124999999994202e+01 -1.034491936758715245e-89
2.371499999999993236e+01 -3.789761751245799315e-89
2.392874999999993690e+01 -7.192551963681553305e-89
2.414249999999994145e+01 -1.055068237094887295e-88
2.435624999999993179e+01 -1.270949055791009992e-88
2.456999999999993634e+01 -1.212247784858428686e-88
2.478374999999994088e+01 -7.102291690319183092e-89
2.499749999999993122e+01 3.709830299838894957e-89
2.521124999999993577e+01 2.066601827270772869e-88
2.542499999999994031e+01 4.231202466465660481e-88
2.563874999999993065e+01 6.465213172041317767e-88
2.585249999999993520e+01 8.076831989585806008e-88
2.606624999999993975e+01 8.115801577364822008e-88
2.627999999999994429e+01 5.515679061491550111e-88
2.649374999999993463e+01 -6.306975217433524508e-89
2.670749999999993918e+01 -1.066591787643147189e-87
2.692124999999994373e+01 -2.388166332199614098e-87
2.713499999999993406e+01 -3.805902118957776564e-87
2.734874999999993861e+01 -4.920473236486205418e-87
2.756249999999994316e+01 -5.169816639201897425e-87
2.777624999999993349e+01 -3.906775253723063282e-87
2.798999999999993804e+01 -5.549851376453983906e-88
2.820374999999994259e+01 5.157539244816875568e-87
2.841749999999993292e+01 1.291348963195450027e-86
2.863124999999993747e+01 2.153005292013066815e-86
2.884499999999994202e+01 2.878688256907753780e-86
2.905874999999993236e+01 3.148046859178839770e-86
2.927249999999993690e+01 2.583092707547665376e-86
2.948624999999994145e+01 8.332449114223995559e-87
2.969999999999993179e+01 -2.294756608495702325e-86
2.991374999999993634e+01 -6.675742871771587983e-86
3.012749999999994088e+01 -1.170607917484056879e-85
3.034124999999993122e+01 -1.619670521336510731e-85
3.055499999999993577e+01 -1.838648415156778508e-85
3.076874999999994031e+01 -1.614613210533816631e-85
3.098249999999993065e+01 -7.425400011980237261e-86
3.119624999999993520e+01 9.049037029031179087e-86
3.140999999999993975e+01 3.289273505019958047e-85
3.162374999999993008e+01 6.116685509504996423e-85
3.183749999999993463e+01 8.773958081050192259e-85
3.205124999999993918e+01 1.032637786574436539e-84
3.226499999999992951e+01 9.615106536028108284e-85
3.247874999999993406e+01 5.483765558204348857e-85
3.269249999999993861e+01 -2.859121290515873633e-85
3.290624999999992895e+01 -1.537375012164689325e-84
3.311999999999993349e+01 -3.070221200456531745e-84
3.333374999999993804e+01 -4.580074311750882383e-84
3.354749999999992838e+01 -5.587617935979541835e-84
3.376124999999993292e+01 -5.482655218519761060e-84
3.397499999999993747e+01 -3.634709458729994757e-84
3.418874999999992781e+01 4.248458141047343695e-85
3.440249999999993236e+01 6.763331265573607359e-84
3.461624999999993690e+01 1.479016834871880825e-83
3.482999999999992724e+01 2.305201524150196381e-83
3.504374999999993179e+01 2.917258553671077613e-83
3.525749999999993634e+01 3.003953386457121629e-83
3.547124999999992667e+01 2.232424929361827593e-83
3.568499999999993122e+01 3.368070952814940425e-84
3.589874999999993577e+01 -2.762409789626859529e-83
3.611249999999992610e+01 -6.826919152001384957e-83
3.632624999999993065e+01 -1.119000120494568542e-82
3.653999999999993520e+01 -1.471218772235055279e-82
3.675374999999992554e+01 -1.585429946650161468e-82
3.696749999999993008e+01 -1.291242942671558388e-82
3.718124999999993463e+01 -4.435748729478752090e-83
3.739499999999992497e+01 1.019530425640626355e-82
3.760874999999992951e+01 3.011373395011452342e-82
3.782249999999993406e+01 5.238670195227766000e-82
3.803624999999993861e+01 7.172815613977959741e-82
3.824999999999994316e+01 8.075232049627780109e-82
3.846374999999991928e+01 7.099386702105147940e-82
3.867749999999992383e+01 3.481719378650516140e-82
3.889124999999992838e+01 -3.185979388637535414e-82
3.910499999999993292e+01 -1.263853748177747877e-81
3.931874999999993747e+01 -2.364278407787301095e-81
3.953249999999994202e+01 -3.382641875527983245e-81
3.974624999999991815e+01 -3.974873955180880814e-81
3.995999999999992269e+01 -3.732484875013246064e-81
4.017374999999992724e+01 -2.267152813723085223e-81
4.038749999999993179e+01 6.644174015571434945e-82
4.060124999999993634e+01 5.010140227439842747e-81
4.081499999999994088e+01 1.027697209817814123e-80
4.102874999999991701e+01 1.543534239058872825e-80
4.124249999999992156e+01 1.892855934759520619e-80
4.145624999999992610e+01 1.884100806370089869e-80
4.166999999999993065e+01 1.326143554449596474e-80
4.188374999999993520e+01 8.401128637891435485e-82
4.209749999999993975e+01 -1.851849953587238280e-80
4.231124999999991587e+01 -4.295653128575156976e-80
4.252499999999992042e+01 -6.815637878287023198e-80
4.273874999999992497e+01 -8.727658203691247950e-80
4.295249999999992951e+01 -9.158297931965087184e-80
4.316624999999993406e+01 -7.196053253335741341e-80
4.337999999999993861e+01 -2.133414327536603815e-80
4.359374999999991473e+01 6.222103255255375826e-80
4.380749999999991928e+01 1.722135334136796747e-79
4.402124999999992383e+01 2.911720665743007659e-79
4.423499999999992838e+01 3.898890236228467609e-79
4.444874999999993292e+01 4.296317250526753636e-79
4.466249999999993747e+01 3.682332687036830288e-79
4.487624999999991360e+01 1.703347263481004383e-79
4.508999999999991815e+01 -1.789990812115094347e-79
4.530374999999992269e+01 -6.594363299466360755e-79
4.551749999999992724e+01 -1.202911796386836432e-78
4.573124999999993179e+01 -1.688317557293100230e-78
4.594499999999993634e+01 -1.948542787157577520e-78
4.615874999999991246e+01 -1.794193504509773233e-78
4.637249999999991701e+01 -1.055785679189769099e-78
4.658624999999992156e+01 3.581372463368290019e-79
4.679999999999992610e+01 2.395336272822278716e-78
4.701374999999993065e+01 4.801430098754464182e-78
4.722749999999993520e+01 7.088880001125808537e-78
4.744124999999993975e+01 8.556062965611039483e-78
4.765499999999991587e+01 8.376341036828928332e-78
4.786874999999992042e+01 5.767260527171413338e-78
4.808249999999992497e+01 2.324643961513710339e-79
4.829624999999992951e+01 -8.155341649954357953e-78
4.850999999999993406e+01 -1.848944034081328743e-77
4.872374999999993861e+01 -2.886564616018726514e-77
4.893749999999991473e+01 -3.641681885152492186e-77
4.915124999999991928e+01 -3.763410062025017015e-77
4.936499999999992383e+01 -2.902709785178295693e-77
4.957874999999992838e+01 -8.105955404616978007e-78
4.979249999999993292e+01 2.543037185509376364e-77
5.000624999999993747e+01 6.853005635445107299e-77
5.021999999999991360e+01 1.139853795516621752e-76
5.043374999999991815e+01 1.503918146942291499e-76
5.064749999999992269e+01 1.632536582852034324e-76
5.086124999999992724e+01 1.374884867205062628e-76
5.107499999999993179e+01 6.131578765310920847e-77
5.128874999999993634e+01 -6.887730626232836260e-77
5.150249999999991246e+01 -2.435693046624834531e-76
5.171624999999991701e+01 -4.363646007243401221e-76
5.192999999999992156e+01 -6.031089230660474878e-76
5.214374999999992610e+01 -6.854806431994077175e-76
5.235749999999993065e+01 -6.202174567759425228e-76
5.257124999999993520e+01 -3.541344297741542860e-76
5.278499999999991132e+01 1.364369146297134422e-76
5.299874999999991587e+01 8.250336529670562492e-76
5.321249999999992042e+01 1.618385489035023587e-75
5.342624999999992497e+01 2.350137065142523458e-75
5.363999999999992951e+01 2.791626960681876354e-75
5.385374999999993406e+01 2.684839701251151824e-75
5.406749999999991019e+01 1.798969111674082610e-75
5.428124999999991473e+01 6.227306096027462971e-78
5.449499999999991928e+01 -2.634795385946923307e-75
5.470874999999992383e+01 -5.807465799306051870e-75
5.492249999999992838e+01 -8.902187806193902018e-75
5.513624999999993292e+01 -1.104492272522028694e-74
5.534999999999990905e+01 -1.121095364014095154e-74
5.556374999999991360e+01 -8.432572040933249566e-75
5.577749999999991815e+01 -2.087789784112585239e-75
5.599124999999992269e+01 7.770850835875473275e-75
5.620499999999992724e+01 2.011810102498624066e-74
5.641874999999993179e+01 3.278346098074783753e-74
5.663249999999990791e+01 4.250883724537105446e-74
5.684624999999991246e+01 4.532652136049488272e-74
5.705999999999991701e+01 3.730209159288849858e-74
5.727374999999992156e+01 1.560845984609410126e-74
5.748749999999992610e+01 -2.020763359832334141e-74
5.770124999999993065e+01 -6.702044040025816961e-74
5.791499999999990678e+01 -1.173337546067860412e-73
5.812874999999991132e+01 -1.593037495800148128e-73
5.834249999999991587e+01 -1.779385071488243785e-73
5.855624999999992042e+01 -1.576836720608447564e-73
5.876999999999992497e+01 -8.632555464447221873e-74
5.898374999999992951e+01 4.024141904660827121e-74
5.919749999999990564e+01 2.132708739090235037e-73
5.941124999999991019e+01 4.077231952011980412e-73
5.962499999999991473e+01 5.816282839132125802e-73
5.983874999999991928e+01 6.796735626099015671e-73
6.005249999999992383e+01 6.419424692698893443e-73
6.026624999999992838e+01 4.177657890139276619e-73
6.047999999999990450e+01 -1.673051998044523581e-74
6.069374999999990905e+01 -6.404070869827334595e-73
6.090749999999991360e+01 -1.372761752015536121e-72
6.112124999999991815e+01 -2.068959605008613786e-72
6.133499999999992269e+01 -2.529686590277491029e-72
6.154874999999992724e+01 -2.529730770541793310e-72
6.176249999999993179e+01 -1.865947503161005810e-72
6.197624999999990791e+01 -4.204266808016286056e-73
6.218999999999991246e+01 1.771157924290148724e-72
6.240374999999991701e+01 4.461764629694324104e-72
6.261749999999992156e+01 7.165568087729954597e-72
6.283124999999992610e+01 9.181305798101751124e-72
6.304499999999993065e+01 9.682257907728270801e-72
6.325874999999990678e+01 7.878084801273714431e-72
6.347249999999991132e+01 3.237147338216553312e-72
6.368624999999991587e+01 -4.262808894115593077e-72
6.389999999999992042e+01 -1.390894068198208600e-71
6.411374999999992497e+01 -2.412223200573420130e-71
6.432749999999992951e+01 -3.249581055872867140e-71
6.454124999999990564e+01 -3.606514140287466240e-71
6.475499999999991019e+01 -3.183879456218341925e-71
6.496874999999991473e+01 -1.756287081658992933e-71
6.518249999999991928e+01 7.380004999670740364e-72
6.539624999999992383e+01 4.111315764698269031e-71
6.560999999999992838e+01 7.868955572259742794e-71
6.582374999999990450e+01 1.120648683024307714e-70
6.603749999999990905e+01 1.308588905166340200e-70
6.625124999999991360e+01 1.240411333151682309e-70
6.646499999999991815e+01 8.249481294254959688e-71
6.667874999999992269e+01 2.167784663624135997e-72
6.689249999999992724e+01 -1.127541589395046320e-70
6.710624999999990337e+01 -2.474577584738410817e-70
6.731999999999990791e+01 -3.758373434382898873e-70
6.753374999999991246e+01 -4.624441920182350365e-70
6.774749999999991701e+01 -4.676393432205868052e-70
6.796124999999992156e+01 -3.559631174422172331e-70
6.817499999999992610e+01 -1.069175390705158459e-70
6.838874999999990223e+01 2.735904307418914166e-70
6.860249999999990678e+01 7.437879102544635774e-70
6.881624999999991132e+01 1.221783129395479108e-69
6.902999999999991587e+01 1.589746083068872806e-69
6.924374999999992042e+01 1.708927567824300842e-69
6.945749999999992497e+01 1.446154365593968866e-69
6.967124999999990109e+01 7.097894353762786717e-70
6.988499999999990564e+01 -5.100705790555676392e-70
7.009874999999991019e+01 -2.105587211721140411e-69
7.031249999999991473e+01 -3.830152807138919876e-69
7.052624999999991928e+01 -5.303731467138218644e-69
7.073999999999992383e+01 -6.053920847026538000e-69
7.095374999999989996e+01 -5.596876933341729842e-69
7.116749999999990450e+01 -3.553896637889614806e-69
7.138124999999990905e+01 2.111875023518989057e-70
7.159499999999991360e+01 5.459823547721746863e-69
7.180874999999991815e+01 1.148691459217193737e-68
7.202249999999992269e+01 1.710846710195825260e-68
7.223624999999989882e+01 2.076360102671527600e-68
7.244999999999990337e+01 2.075119376364109521e-68
7.266374999999990791e+01 1.559596532593959364e-68
7.287749999999991246e+01 4.504563049335182934e-69
7.309124999999991701e+01 -1.216576426321628737e-68
7.330499999999992156e+01 -3.253702445171646662e-68
7.351874999999989768e+01 -5.306941006135338238e-68
7.373249999999990223e+01 -6.877454515871887128e-68
7.394624999999990678e+01 -7.386996587844688524e-68
7.415999999999991132e+01 -6.288697000428430739e-68
7.437374999999991587e+01 -3.213703648000894669e-68
7.458749999999992042e+01 1.868318174724514956e-68
7.480124999999992497e+01 8.508798865359688447e-68
7.501499999999990109e+01 1.570222383729696146e-67
7.522874999999990564e+01 2.191377285218601648e-67
7.544249999999991019e+01 2.524688338577809505e-67
7.565624999999991473e+01 2.376401832880723136e-67
7.586999999999991928e+01 1.594166140157349654e-67
7.608374999999992383e+01 1.200577712877041070e-68
7.629749999999989996e+01 -1.958853147286280414e-67
7.651124999999990450e+01 -4.375606901952914578e-67
7.672499999999990905e+01 -6.678576285447671141e-67
7.693874999999991360e+01 -8.269461603149964619e-67
7.715249999999991815e+01 -8.491176271512681240e-67
7.736624999999992269e+01 -6.763391196858538212e-67
7.757999999999989882e+01 -2.751172908351206468e-67
7.779374999999990337e+01 3.461306788125796269e-67
7.800749999999990791e+01 1.123176884650958768e-66
7.822124999999991246e+01 1.930190458998394461e-66
7.843499999999991701e+01 2.586482811329223849e-66
7.864874999999992156e+01 2.878873571477826915e-66
7.886249999999989768e+01 2.600176946009453338e-66
7.907624999999990223e+01 1.600649157394080025e-66
7.928999999999990678e+01 -1.550185510113560528e-67
7.950374999999991132e+01 -2.536634136237985324e-66
7.971749999999991587e+01 -5.217658360641679182e-66
7.993124999999992042e+01 -7.679329304122994589e-66
8.014499999999989654e+01 -9.261640810608502436e-66
8.035874999999990109e+01 -9.266333758269670631e-66
8.057249999999990564e+01 -7.106675140435050289e-66
8.078624999999991019e+01 -2.485888735086726850e-66
8.099999999999991473e+01 4.427201761656236729e-66
8.121374999999991928e+01 1.286745949785756999e-65
8.142749999999989541e+01 2.143445191093252952e-65
8.164124999999989996e+01 2.818736530260197206e-65
8.185499999999990450e+01 3.089983857721411566e-65
8.206874999999990905e+01 2.747278021933137817e-65
8.228249999999991360e+01 1.646581368293927451e-65
8.249624999999991815e+01 -2.333496948804340662e-66
8.270999999999989427e+01 -2.742083766693061008e-65
8.292374999999989882e+01 -5.530803285183052738e-65
8.313749999999990337e+01 -8.061741197943695247e-65
8.335124999999990791e+01 -9.664315453200793541e-65
8.356499999999991246e+01 -9.641461250424380144e-65
8.377874999999991701e+01 -7.419363174929153909e-65
8.399249999999989313e+01 -2.721494496844039670e-65
8.420624999999989768e+01 4.264284116237464149e-65
8.441999999999990223e+01 1.276599819641999141e-64
8.463374999999990678e+01 2.139874037418294346e-64
8.484749999999991132e+01 2.826454728202044165e-64
8.506124999999991587e+01 3.120248467423524357e-64
8.527499999999989200e+01 2.818380025292295539e-64
8.548874999999989654e+01 1.781253740731938073e-64
8.570249999999990109e+01 -1.450914727576592847e-66
8.591624999999990564e+01 -2.431150090546257539e-64
8.612999999999991019e+01 -5.145612022654889341e-64
8.634374999999991473e+01 -7.658487412518079319e-64
8.655749999999989086e+01 -9.345143539739285660e-64
8.677124999999989541e+01 -9.551709609424524433e-64
8.698499999999989996e+01 -7.729539465416394739e-64
8.719874999999990450e+01 -3.591151909211628610e-64
8.741249999999990905e+01 2.739644579680929668e-64
8.762624999999991360e+01 1.061833426418928432e-63
8.783999999999991815e+01 1.884823701331246851e-63
8.805374999999989427e+01 2.575920364814364644e-63
8.826749999999989882e+01 2.941493203881955390e-63
8.848124999999990337e+01 2.794526124886872168e-63
8.869499999999990791e+01 1.997150115791481729e-63
8.890874999999991246e+01 5.062597360656622927e-64
8.912249999999991701e+01 -1.586632332415663356e-63
8.933624999999989313e+01 -4.031681520186675322e-63
8.954999999999989768e+01 -6.423292579310234812e-63
8.976374999999990223e+01 -8.236679133322783780e-63
8.997749999999990678e+01 -8.901216233822547486e-63
9.019124999999991132e+01 -7.906451183771667992e-63
9.040499999999991587e+01 -4.928463918624431619e-63
9.061874999999989200e+01 4.376065406144143465e-65
9.083249999999989654e+01 6.608429504742284486e-63
9.104624999999990109e+01 1.390639892191397087e-62
9.125999999999990564e+01 2.065796571983637993e-62
9.147374999999991019e+01 2.529778457503633095e-62
9.168749999999991473e+01 2.620936980618174246e-62
9.190124999999989086e+01 2.204057384625324766e-62
9.211499999999989541e+01 1.205943620633120697e-62
9.232874999999989996e+01 -3.510159540599714826e-63
9.254249999999990450e+01 -2.324685056490716623e-62
9.275624999999990905e+01 -4.446004624727517418e-62
9.296999999999991360e+01 -6.335125194515701252e-62
9.318374999999988972e+01 -7.544282474983080112e-62
9.339749999999989427e+01 -7.626498765155699269e-62
9.361124999999989882e+01 -6.223844448033189164e-62
9.382499999999990337e+01 -3.163446134607751993e-62
9.403874999999990791e+01 1.455281800040308107e-62
9.425249999999991246e+01 7.201445431588970371e-62
9.446624999999988859e+01 1.330052504787311678e-61
9.467999999999989313e+01 1.868432874363160499e-61
9.489374999999989768e+01 2.211029977437177231e-61
9.510749999999990223e+01 2.234632299729429741e-61
9.532124999999990678e+01 1.840404622100125485e-61
9.553499999999991132e+01 9.790534459029148451e-62
9.574874999999988745e+01 -3.262798264969486208e-62
9.596249999999989200e+01 -1.964110343248129550e-61
9.617624999999989654e+01 -3.730311434842043160e-61
9.638999999999990109e+01 -5.339138062865461457e-61
9.660374999999990564e+01 -6.451527257709091478e-61
9.681749999999991019e+01 -6.720156981190090046e-61
9.703124999999988631e+01 -5.847821048314799445e-61
9.724499999999989086e+01 -3.652689446793287903e-61
9.745874999999989541e+01 -1.314278417059158906e-62
9.767249999999989996e+01 4.490587240280837847e-61
9.788624999999990450e+01 9.733195909192687745e-61
9.809999999999990905e+01 1.486969633694733047e-60
9.831374999999988518e+01 1.897685259708821542e-60
9.852749999999988972e+01 2.102983045320916463e-60
9.874124999999989427e+01 2.003961977823168556e-60
9.895499999999989882e+01 1.522399911865943562e-60
9.916874999999990337e+01 6.196219397707045656e-61
9.938249999999990791e+01 -6.851061459111361571e-61
9.959624999999988404e+01 -2.299478750669058397e-60
9.980999999999988859e+01 -4.049567450604838708e-60
1.000237499999998931e+02 -5.681114959637274322e-60
1.002374999999998977e+02 -6.873832666089593251e-60
1.004512499999999022e+02 -7.271093611202343051e-60
1.006649999999999068e+02 -6.526046729683967088e-60
1.008787499999998829e+02 -4.363073363819676325e-60
1.010924999999998875e+02 -6.506257358149068693e-61
1.013062499999998920e+02 4.522076656720434748e-60
1.015199999999998965e+02 1.077596721590951253e-59
1.017337499999999011e+02 1.739592296240763835e-59
1.019474999999999056e+02 2.332544058943067324e-59
1.021612499999999102e+02 2.722084946742971900e-59
1.023749999999998863e+02 2.758098164425432029e-59
1.025887499999998909e+02 2.296095705391365647e-59
1.028024999999998954e+02 1.226619361582872072e-59
1.030162499999999000e+02 -4.895038984897051366e-60
1.032299999999999045e+02 -2.784398519071303347e-59
1.034437499999999091e+02 -5.451514645170914848e-59
1.036574999999998852e+02 -8.127763972302891697e-59
1.038712499999998897e+02 -1.029911257798360175e-58
1.040849999999998943e+02 -1.133882872669568369e-58
1.042987499999998988e+02 -1.058489290951324677e-58
1.045124999999999034e+02 -7.457767728039103483e-59
1.047262499999999079e+02 -1.611759148440595839e-59
1.049399999999998840e+02 6.896883991748743301e-59
1.051537499999998886e+02 1.745293454898152506e-58
1.053674999999998931e+02 2.877382096953135535e-58
1.055812499999998977e+02 3.889353814065565009e-58
1.057949999999999022e+02 4.528165681522463136e-58
1.060087499999999068e+02 4.512987988937447373e-58
1.062224999999998829e+02 3.581673189739620959e-58
1.064362499999998875e+02 1.552742959825664607e-58
1.066499999999998920e+02 -1.603692477445904611e-58
1.068637499999998965e+02 -5.697359418281765874e-58
1.070774999999999011e+02 -1.026710395886347477e-57
1.072912499999999056e+02 -1.456621432196985105e-57
1.075049999999998818e+02 -1.760181720984965302e-57
1.077187499999998863e+02 -1.824227774101125420e-57
1.079324999999998909e+02 -1.539771101033327072e-57
1.081462499999998954e+02 -8.265139627835216434e-58
1.083599999999999000e+02 3.387502420777556726e-58
1.085737499999999045e+02 1.894318749443578876e-57
1.087874999999998806e+02 3.672502630662300210e-57
1.090012499999998852e+02 5.392501244568328713e-57
1.092149999999998897e+02 6.674356837820941828e-57
1.094287499999998943e+02 7.079465034700888721e-57
1.096424999999998988e+02 6.179616414396658510e-57
1.098562499999999034e+02 3.651214302053173632e-57
1.100699999999998795e+02 -6.154208742977751216e-58
1.102837499999998840e+02 -6.408988244246864811e-57
1.104974999999998886e+02 -1.311608225733168669e-56
1.107112499999998931e+02 -1.969348329897643999e-56
1.109249999999998977e+02 -2.472068140489989176e-56
1.111387499999999022e+02 -2.655275704396632147e-56
1.113524999999998784e+02 -2.358009659871606313e-56
1.115662499999998829e+02 -1.458106207675205655e-56
1.117799999999998875e+02 8.715407676224512909e-58
1.119937499999998920e+02 2.201598347937990827e-56
1.122074999999998965e+02 4.660766716224062404e-56
1.124212499999999011e+02 7.082671553500101835e-56
1.126349999999998772e+02 8.948365963370496768e-56
1.128487499999998818e+02 9.659287073152994926e-56
1.130624999999998863e+02 8.633132126687149894e-56
1.132762499999998909e+02 5.432465923254191544e-56
1.134899999999998954e+02 -8.891425177126487261e-58
1.137037499999999000e+02 -7.646248693841830691e-56
1.139174999999998761e+02 -1.642284350786838445e-55
1.141312499999998806e+02 -2.504372819208898820e-55
1.143449999999998852e+02 -3.165728697092702750e-55
1.145587499999998897e+02 -3.414761474347535843e-55
1.147724999999998943e+02 -3.048097050815157537e-55
1.149862499999998988e+02 -1.916244782009562753e-55
1.151999999999998749e+02 2.532073223453333300e-57
1.154137499999998795e+02 2.668474507383579623e-55
1.156274999999998840e+02 5.719463079052896072e-55
1.158412499999998886e+02 8.692945899942140784e-55
1.160549999999998931e+02 1.094411562211998141e-54
1.162687499999998977e+02 1.174589905533671544e-54
1.164824999999999022e+02 1.041123126577275513e-54
1.166962499999998784e+02 6.450865767773863089e-55
1.169099999999998829e+02 -2.537407076728985579e-56
1.171237499999998875e+02 -9.293424210544366383e-55
1.173374999999998920e+02 -1.962882452936364725e-54
1.175512499999998965e+02 -2.958327814595236236e-54
1.177649999999999011e+02 -3.696634477315007173e-54
1.179787499999998772e+02 -3.934817584622141039e-54
1.181924999999998818e+02 -3.448033228424430102e-54
1.184062499999998863e+02 -2.082635506238390782e-54
1.186199999999998909e+02 1.870475733997800797e-55
1.188337499999998954e+02 3.208785329382774526e-54
1.190474999999999000e+02 6.622166164049127058e-54
1.192612499999998761e+02 9.861095228656066174e-54
1.194749999999998806e+02 1.219987094870698104e-53
1.196887499999998852e+02 1.284825527086200259e-53
1.199024999999998897e+02 1.109258021939420139e-53
1.201162499999998943e+02 6.469315481197949179e-54
1.203299999999998988e+02 -1.053878365537763843e-54
1.205437499999998749e+02 -1.092464357761567095e-53
1.207574999999998795e+02 -2.192115036575315316e-53
1.209712499999998840e+02 -3.217687700384556762e-53
1.211849999999998886e+02 -3.934677679289836815e-53
1.213987499999998931e+02 -4.092802153082839076e-53
1.216124999999998977e+02 -3.472087895858911915e-53
1.218262499999998738e+02 -1.938142132751627817e-53
1.220399999999998784e+02 5.017344181110182658e-54
1.222537499999998829e+02 3.652879101255466925e-53
1.224674999999998875e+02 7.110911893238260043e-53
1.226812499999998920e+02 1.027500024382979341e-52
1.228949999999998965e+02 1.240575925926331874e-52
1.231087499999998727e+02 1.273056619408231080e-52
1.233224999999998772e+02 1.059021750973910566e-52
1.235362499999998818e+02 5.610370768990217079e-53
1.237499999999998863e+02 -2.129271176077218314e-53
1.239637499999998909e+02 -1.196339382989988749e-52
1.241774999999998954e+02 -2.258621627689258949e-52
1.243912499999998715e+02 -3.210934453547311444e-52
1.246049999999998761e+02 -3.825684463518185182e-52
1.248187499999998806e+02 -3.870184996591442112e-52
1.250324999999998852e+02 -3.152147660997559537e-52
1.252462499999998897e+02 -1.571525194727950526e-52
1.254599999999998943e+02 8.298137013928109576e-53
1.256737499999998704e+02 3.831359722908080364e-52
1.258874999999998749e+02 7.021747601444204496e-52
1.261012499999998795e+02 9.821273164596776442e-52
1.263149999999998840e+02 1.154552648060830914e-51
1.265287499999998886e+02 1.151018148090159457e-51
1.267424999999998931e+02 9.168647189268499337e-52