2.024999999999579359e-01 -2.004828764510702255e-141
4.162499999999482725e-01 -3.067466480211977446e-141
6.299999999999528200e-01 -3.773181854575954070e-141
8.437499999999573674e-01 -3.291203388918992386e-141
1.057499999999947704e+00 -4.146657044631513044e-142
1.271249999999952252e+00 6.243212162560867648e-141
1.484999999999956799e+00 1.771756716823842432e-140
1.698749999999947136e+00 3.370813683773651879e-140
1.912499999999951683e+00 5.112995887478239390e-140
2.126249999999956231e+00 6.241812647475412907e-140
2.339999999999946567e+00 5.419639999413469787e-140
2.553749999999951115e+00 7.443587320105495314e-141
2.767499999999955662e+00 -9.917134685474363168e-140
2.981249999999945999e+00 -2.808314234002426553e-139
3.194999999999950546e+00 -5.314476418505155776e-139
3.408749999999955094e+00 -8.020093465037551192e-139
3.622499999999945430e+00 -9.760840985449889316e-139
3.836249999999949978e+00 -8.518027115333991771e-139
4.049999999999954525e+00 -1.469462427001427921e-139
4.263749999999944862e+00 1.449241505856906071e-138
4.477499999999949409e+00 4.151018577713627533e-138
4.691249999999953957e+00 7.858680749997579587e-138
4.904999999999944293e+00 1.185447430011861165e-137
5.118749999999948841e+00 1.446738075672079214e-137
5.332499999999953388e+00 1.283889860637198537e-137
5.546249999999943725e+00 3.016915486514601623e-138
5.759999999999948272e+00 -1.930878779930082340e-137
5.973749999999952820e+00 -5.708935038501045639e-137
6.187499999999943157e+00 -1.089883175929256944e-136
6.401249999999947704e+00 -1.653517343637193220e-136
6.614999999999952252e+00 -2.038347432988969293e-136
6.828749999999942588e+00 -1.864137297367318060e-136
7.042499999999947136e+00 -6.068408805547482829e-137
7.256249999999951683e+00 2.306307249466611779e-136
7.469999999999942020e+00 7.277857290663487065e-136
7.683749999999946567e+00 1.417011916627144306e-135
7.897499999999951115e+00 2.179891171486970742e-135
8.111249999999941451e+00 2.738443744011514451e-135
8.324999999999945999e+00 2.616841389697835674e-135
8.538749999999950546e+00 1.154453977301682425e-135
8.752499999999940883e+00 -2.383074707809661646e-135
8.966249999999945430e+00 -8.545051472876529090e-135
9.179999999999949978e+00 -1.725593124167645096e-134
9.393749999999940314e+00 -2.720869773445772301e-134
9.607499999999944862e+00 -3.519413844046821723e-134
9.821249999999949409e+00 -3.559956986320336896e-134
1.003499999999993975e+01 -2.046809326490642204e-134
1.024874999999994429e+01 1.934863648601968287e-134
1.046249999999994884e+01 9.136118573645999350e-134
1.067624999999993918e+01 1.965060925467191501e-133
1.088999999999994373e+01 3.221571405470362461e-133
1.110374999999994827e+01 4.340715244263836175e-133
1.131749999999993861e+01 4.696761815293555684e-133
1.153124999999994316e+01 3.368739787635672563e-133
1.174499999999994770e+01 -7.571758921091487876e-134
1.195874999999993804e+01 -8.702496413352469435e-133
1.217249999999994259e+01 -2.087020000118623524e-132
1.238624999999994714e+01 -3.626338088597391228e-132
1.259999999999993747e+01 -5.152733521630129016e-132
1.281374999999994202e+01 -6.004332755481692552e-132
1.302749999999994657e+01 -5.150261434739142795e-132
1.324124999999995111e+01 -1.260725057500152955e-132
1.345499999999994145e+01 7.029232604206081650e-132
1.366874999999994600e+01 2.058238504158770840e-131
1.388249999999995055e+01 3.890358613739434395e-131
1.409624999999994088e+01 5.900885269878245750e-131
1.430999999999994543e+01 7.421920740913912078e-131
1.452374999999994998e+01 7.330772438610204643e-131
1.473749999999994031e+01 4.070476365972648915e-131
1.495124999999994486e+01 -4.127666888295097155e-131
1.516499999999994941e+01 -1.871237253777952364e-130
1.537874999999993975e+01 -3.988747924992931171e-130
1.559249999999994429e+01 -6.529187394837410113e-130
1.580624999999994884e+01 -8.844753155969157642e-130
1.601999999999993918e+01 -9.740124519739474635e-130
1.623374999999994373e+01 -7.433038890556719392e-130
1.644749999999994827e+01 2.755008849445798127e-131
1.666124999999993861e+01 1.548423480378786180e-129
1.687499999999994316e+01 3.920198746314011630e-129
1.708874999999994770e+01 6.983680631650154902e-129
1.730249999999993804e+01 1.012919780624737254e-128
1.751624999999994259e+01 1.210959060729820262e-128
1.772999999999994714e+01 1.094060356627286534e-128
1.794374999999993747e+01 4.018746356741639352e-129
1.815749999999994202e+01 -1.137815173630617637e-128
1.837124999999994657e+01 -3.704469319889187511e-128
1.858499999999993690e+01 -7.216902651983101851e-128
1.879874999999994145e+01 -1.111242260352093021e-127
1.901249999999994600e+01 -1.411654365496649378e-127
1.922624999999993634e+01 -1.409376022040161552e-127
1.943999999999994088e+01 -8.123165552395138420e-128
1.965374999999994543e+01 7.014935314027101298e-128
1.986749999999993577e+01 3.375325414204072891e-127
2.008124999999994031e+01 7.194285227858224724e-127
2.029499999999994486e+01 1.164419709868452169e-126
2.050874999999993520e+01 1.545367581581987014e-126
2.072249999999993975e+01 1.641432554729546299e-126
2.093624999999994429e+01 1.143045752065835413e-126
2.114999999999993463e+01 -3.006117579052471051e-127
2.136374999999993918e+01 -2.971965408134339410e-126
2.157749999999994373e+01 -6.901887351037623362e-126
2.179124999999993406e+01 -1.162261601140932847e-125
2.200499999999993861e+01 -1.590259889874206797e-125
2.221874999999994316e+01 -1.755911256805142066e-125
2.243249999999993349e+01 -1.349936642392584707e-125
2.264624999999993804e+01 -1.813378738072103753e-127
2.285999999999994259e+01 2.531855823584755025e-125
2.307374999999993292e+01 6.353127319885619212e-125
2.328749999999993747e+01 1.102228982098864382e-124
2.350124999999994202e+01 1.538812395600259288e-124
2.371499999999993236e+01 1.739833132750842022e-124
2.392874999999993690e+01 1.414547377160712705e-124
2.414249999999994145e+01 2.305910200368429037e-125
2.435624999999993179e+01 -2.086580054618802150e-124
2.456999999999993634e+01 -5.591345244859894470e-124
2.478374999999994088e+01 -9.904939056446257323e-124
2.499749999999993122e+01 -1.399551281016450486e-123
2.521124999999993577e+01 -1.603511835385985552e-123
2.542499999999994031e+01 -1.345730764980256532e-123
2.563874999999993065e+01 -3.361699886901682918e-124
2.585249999999993520e+01 1.660635267886181473e-123
2.606624999999993975e+01 4.685858843306183598e-123
2.627999999999994429e+01 8.408085231289165964e-123
2.649374999999993463e+01 1.194603421547844686e-122
2.670749999999993918e+01 1.376400710201059857e-122
2.692124999999994373e+01 1.174110035510210806e-122
2.713499999999993406e+01 3.527735380414121755e-123
2.734874999999993861e+01 -1.271989008113058341e-122
2.756249999999994316e+01 -3.721434270643120059e-122
2.777624999999993349e+01 -6.715179673542196435e-122
2.798999999999993804e+01 -9.540485156826941482e-122
2.820374999999994259e+01 -1.098656606441835093e-121
2.841749999999993292e+01 -9.420339437556488633e-122
2.863124999999993747e+01 -3.083936314784666325e-122
2.884499999999994202e+01 9.330293933722829865e-122
2.905874999999993236e+01 2.783683809170816496e-121
2.927249999999993690e+01 5.016685452910616334e-121
2.948624999999994145e+01 7.089956883768888037e-121
2.969999999999993179e+01 8.113858122645086436e-121
2.991374999999993634e+01 6.926188774601539389e-121
3.012749999999994088e+01 2.325315736802575437e-121
3.034124999999993122e+01 -6.511113504929752109e-121
3.055499999999993577e+01 -1.944528189070545887e-120
3.076874999999994031e+01 -3.473824345220281063e-120
3.098249999999993065e+01 -4.854703588328865879e-120
3.119624999999993520e+01 -5.484655914047706847e-120
3.140999999999993975e+01 -4.610433126578344909e-120
3.162374999999993008e+01 -1.498114656959895253e-120
3.183749999999993463e+01 4.286736270329785319e-120
3.205124999999993918e+01 1.251772260369389585e-119
3.226499999999992951e+01 2.194434940420470375e-119
3.247874999999993406e+01 3.006057492546089347e-119
3.269249999999993861e+01 3.317903293075340499e-119
3.290624999999992895e+01 2.698518701464563241e-119
3.311999999999993349e+01 7.679268307513400144e-120
3.333374999999993804e+01 -2.633842623362631367e-119
3.354749999999992838e+01 -7.251918849833415890e-119
3.376124999999993292e+01 -1.225169870463694425e-118
3.397499999999993747e+01 -1.616484940145982306e-118
3.418874999999992781e+01 -1.703609229500912410e-118
3.440249999999993236e+01 -1.283967954075806651e-118
3.461624999999993690e+01 -2.172113647996523970e-119
3.482999999999992724e+01 1.487823081981306826e-118
3.504374999999993179e+01 3.591873021529578912e-118
3.525749999999993634e+01 5.585830563361231034e-118
3.547124999999992667e+01 6.735179749961365978e-118
3.568499999999993122e+01 6.242353170179957046e-118
3.589874999999993577e+01 3.532895814913854113e-118
3.611249999999992610e+01 -1.378967127250381964e-118
3.632624999999993065e+01 -7.555749510250019400e-118
3.653999999999993520e+01 -1.300710537499940130e-117
3.675374999999992554e+01 -1.497003708822838466e-117
3.696749999999993008e+01 -1.076336561605769337e-117
3.718124999999993463e+01 7.660965874043255983e-119
3.739499999999992497e+01 1.745633138345862992e-117
3.760874999999992951e+01 3.231271390926396739e-117
3.782249999999993406e+01 3.323071681846387294e-117
3.803624999999993861e+01 5.123015815769086657e-118
3.824999999999994316e+01 -6.457530256592185939e-117
3.846374999999991928e+01 -1.768441814723416082e-116
3.867749999999992383e+01 -3.098009515885758254e-116
3.889124999999992838e+01 -4.086973216083525591e-116
3.910499999999993292e+01 -3.829985839855670813e-116
3.931874999999993747e+01 -1.179533386050761778e-116
3.953249999999994202e+01 4.923269193010056163e-116
3.974624999999991815e+01 1.487048915061404631e-115
3.995999999999992269e+01 2.761198996436984131e-115
4.017374999999992724e+01 3.986000817101209990e-115
4.038749999999993179e+01 4.560335355099157990e-115
4.060124999999993634e+01 3.639473521213943152e-115
4.081499999999994088e+01 2.919587348062810025e-116
4.102874999999991701e+01 -6.177657306464265664e-115
4.124249999999992156e+01 -1.574140581254583593e-114
4.145624999999992610e+01 -2.706542527006768100e-114
4.166999999999993065e+01 -3.699471188640639756e-114
4.188374999999993520e+01 -4.036540179658733618e-114
4.209749999999993975e+01 -3.047316740161293391e-114
4.231124999999991587e+01 -5.157710818289332048e-116
4.252499999999992042e+01 5.381549748528394606e-114
4.273874999999992497e+01 1.307381486059990848e-113
4.295249999999992951e+01 2.184121632120905077e-113
4.316624999999993406e+01 2.918526022300936466e-113
4.337999999999993861e+01 3.125428496754192386e-113
4.359374999999991473e+01 2.328644402563627528e-113
4.380749999999991928e+01 7.164946609801451518e-115
4.402124999999992383e+01 -3.898998413992637615e-113
4.423499999999992838e+01 -9.393661186653096856e-113
4.444874999999993292e+01 -1.553142064204705690e-112
4.466249999999993747e+01 -2.056866728730944442e-112
4.487624999999991360e+01 -2.192003377732170639e-112
4.508999999999991815e+01 -1.649647681220592317e-112
4.530374999999992269e+01 -1.455593032486932622e-113
4.551749999999992724e+01 2.462458612709752022e-112
4.573124999999993179e+01 6.028055266359061978e-112
4.594499999999993634e+01 9.972999476880526494e-112
4.615874999999991246e+01 1.319937817392105298e-111
4.637249999999991701e+01 1.412425539104582986e-111
4.658624999999992156e+01 1.090413777036270864e-111
4.679999999999992610e+01 1.893742959058696629e-112
4.701374999999993065e+01 -1.366916268376608986e-111
4.722749999999993520e+01 -3.484392363645188029e-111
4.744124999999993975e+01 -5.822597661216615925e-111
4.765499999999991587e+01 -7.753781843417146322e-111
4.786874999999992042e+01 -8.392476055732325277e-111
4.808249999999992497e+01 -6.728389572410555672e-111
4.829624999999992951e+01 -1.880467590244327904e-111
4.850999999999993406e+01 6.539909215401780679e-111
4.872374999999993861e+01 1.801184663398440256e-110
4.893749999999991473e+01 3.073896517582113726e-110
4.915124999999991928e+01 4.148264460741898289e-110
4.936499999999992383e+01 4.576089061115823871e-110
4.957874999999992838e+01 3.855269263461820438e-110
4.979249999999993292e+01 1.556051929438773817e-110
5.000624999999993747e+01 -2.506823295315400511e-110
5.021999999999991360e+01 -8.086053533414372420e-110
5.043374999999991815e+01 -1.434855883906220873e-109
5.064749999999992269e+01 -1.982292696687800115e-109
5.086124999999992724e+01 -2.251451886274620512e-109
5.107499999999993179e+01 -2.023514542770306702e-109
5.128874999999993634e+01 -1.114885429559346717e-109
5.150249999999991246e+01 5.532538745305618654e-110
5.171624999999991701e+01 2.884893493375589109e-109
5.192999999999992156e+01 5.559824965654923730e-109
5.214374999999992610e+01 8.028816809608101163e-109
5.235749999999993065e+01 9.572990532255808776e-109
5.257124999999993520e+01 9.434160904502166242e-109
5.278499999999991132e+01 7.001907726598505997e-109
5.299874999999991587e+01 2.018039596738734701e-109
5.321249999999992042e+01 -5.262379838343163677e-109
5.342624999999992497e+01 -1.402169751363925843e-108
5.363999999999992951e+01 -2.299318967395484443e-108
5.385374999999993406e+01 -3.074089343319574574e-108
5.406749999999991019e+01 -3.603442758896641424e-108
5.428124999999991473e+01 -3.816329724335532029e-108
5.449499999999991928e+01 -3.697492668967048186e-108
5.470874999999992383e+01 -3.242916337182481814e-108
5.492249999999992838e+01 -2.358373512212685502e-108
5.513624999999993292e+01 -7.184626811196088814e-109
5.534999999999990905e+01 2.358759425707188636e-108
5.556374999999991360e+01 7.925760715629389339e-108
5.577749999999991815e+01 1.718527695194279067e-107
5.599124999999992269e+01 3.092250174146757922e-107
5.620499999999992724e+01 4.854684816421309921e-107
5.641874999999993179e+01 6.684815822128068984e-107
5.663249999999990791e+01 7.879339996340795470e-107
5.684624999999991246e+01 7.294721312048797513e-107
5.705999999999991701e+01 3.431358711886710908e-107
5.727374999999992156e+01 -5.255396746865726933e-107
5.748749999999992610e+01 -1.975832405542404799e-106
5.770124999999993065e+01 -3.964545207207727659e-106
5.791499999999990678e+01 -6.203833191830972218e-106
5.812874999999991132e+01 -8.072384451350034279e-106
5.834249999999991587e+01 -8.584363216835422617e-106
5.855624999999992042e+01 -6.471713644581444335e-106
5.876999999999992497e+01 -4.339397487449796710e-107
5.898374999999992951e+01 1.041302411716814060e-105
5.919749999999990564e+01 2.590717673357077173e-105
5.941124999999991019e+01 4.412664458779293069e-105
5.962499999999991473e+01 6.078629248698184624e-105
5.983874999999991928e+01 6.903567026333784079e-105
6.005249999999992383e+01 6.000891756932897011e-105
6.026624999999992838e+01 2.445504100932664537e-105
6.047999999999990450e+01 -4.437371525233507359e-105
6.069374999999990905e+01 -1.467095710036217952e-104
6.090749999999991360e+01 -2.717390418288185289e-104
6.112124999999991815e+01 -3.937366412391208345e-104
6.133499999999992269e+01 -4.705966128293203049e-104
6.154874999999992724e+01 -4.468262179575017269e-104
6.176249999999993179e+01 -2.629190216981627673e-104
6.197624999999990791e+01 1.278446824104316054e-104
6.218999999999991246e+01 7.358901547573566405e-104
6.240374999999991701e+01 1.508496845439571804e-103
6.261749999999992156e+01 2.306171602439176600e-103
6.283124999999992610e+01 2.891888767886416028e-103
6.304499999999993065e+01 2.944712883065353521e-103
6.325874999999990678e+01 2.108658907661424232e-103
6.347249999999991132e+01 8.312140479176292789e-105
6.368624999999991587e+01 -3.248079888805017977e-103
6.389999999999992042e+01 -7.665963504615997633e-103
6.411374999999992497e+01 -1.247795477734262140e-102
6.432749999999992951e+01 -1.644242100060239065e-102
6.454124999999990564e+01 -1.781765569950126930e-102
6.475499999999991019e+01 -1.459495997762970530e-102
6.496874999999991473e+01 -4.954110038593505753e-103
6.518249999999991928e+01 1.206622466818646309e-102
6.539624999999992383e+01 3.576079973009201259e-102
6.560999999999992838e+01 6.297806617080108637e-102
6.582374999999990450e+01 8.762173460347022217e-102
6.603749999999990905e+01 1.007492914065251781e-101
6.625124999999991360e+01 9.158597746498380127e-102
6.646499999999991815e+01 4.968127738474692510e-102
6.667874999999992269e+01 -3.177706073070113218e-102
6.689249999999992724e+01 -1.518140164480982657e-101
6.710624999999990337e+01 -2.974392420863359711e-101
6.731999999999990791e+01 -4.405502979264014800e-101
6.753374999999991246e+01 -5.375299846817249253e-101
6.774749999999991701e+01 -5.331898243804785502e-101
6.796124999999992156e+01 -3.703643525573811105e-101
6.817499999999992610e+01 -5.535603231805839687e-103
6.838874999999990223e+01 5.706860967794289770e-101
6.860249999999990678e+01 1.311474455311154141e-100
6.881624999999991132e+01 2.095623967070058371e-100
6.902999999999991587e+01 2.720781323154435563e-100
6.924374999999992042e+01 2.916387074634275709e-100
6.945749999999992497e+01 2.383550292559703727e-100
6.967124999999990109e+01 8.653015215401920987e-101
6.988499999999990564e+01 -1.756173104524125948e-100
7.009874999999991019e+01 -5.348328699563245851e-100
7.031249999999991473e+01 -9.427244506893327834e-100
7.052624999999991928e+01 -1.310126465005036627e-99
7.073999999999992383e+01 -1.509986905839508679e-99
7.095374999999989996e+01 -1.392621287887021271e-99
7.116749999999990450e+01 -8.157560984519662750e-100
7.138124999999990905e+01 3.110931513123960887e-100
7.159499999999991360e+01 1.972668276190959243e-99
7.180874999999991815e+01 3.994480139109071994e-99
7.202249999999992269e+01 6.005122250723737643e-99
7.223624999999989882e+01 7.433548451408710795e-99
7.244999999999990337e+01 7.560970710982767093e-99
7.266374999999990791e+01 5.642275300637666640e-99
7.287749999999991246e+01 1.100375649924648641e-99
7.309124999999991701e+01 -6.221653944296551647e-99
7.330499999999992156e+01 -1.579007587787380245e-98
7.351874999999989768e+01 -2.615722251946634275e-98
7.373249999999990223e+01 -3.487292806613027321e-98
7.394624999999990678e+01 -3.862726474295506907e-98
7.415999999999991132e+01 -3.370833933179619809e-98
7.437374999999991587e+01 -1.681599443092805405e-98
7.458749999999992042e+01 1.380470206779619065e-98
7.480124999999992497e+01 5.705396186295551046e-98
7.501499999999990109e+01 1.077603292251241443e-97
7.522874999999990564e+01 1.559412371725374011e-97
7.544249999999991019e+01 1.869975190670461863e-97
7.565624999999991473e+01 1.832816211135319037e-97
7.586999999999991928e+01 1.273326873472659344e-97
7.608374999999992383e+01 6.767551319688498982e-99
7.629749999999989996e+01 -1.796438557069408615e-97
7.651124999999990450e+01 -4.157623170353153666e-97
7.672499999999990905e+01 -6.633510379157671184e-97
7.693874999999991360e+01 -8.609082103673797309e-97
7.715249999999991815e+01 -9.282420213969862422e-97
7.736624999999992269e+01 -7.785384704682592159e-97
7.757999999999989882e+01 -3.385389400111320123e-97
7.779374999999990337e+01 4.244456907719585633e-97
7.800749999999990791e+01 1.472480641157929295e-96
7.822124999999991246e+01 2.670504379875218905e-96
7.843499999999991701e+01 3.772417039485323350e-96
7.864874999999992156e+01 4.430055079864495688e-96
7.886249999999989768e+01 4.234455138913005901e-96
7.907624999999990223e+01 2.794909230003018618e-96
7.928999999999990678e+01 -1.460824763226825082e-97
7.950374999999991132e+01 -4.574534071692808531e-96
7.971749999999991587e+01 -1.006869724277894794e-95
7.993124999999992042e+01 -1.570255134796892343e-95
8.014499999999989654e+01 -2.003543592638486656e-95
8.035874999999990109e+01 -2.123470888780885422e-95
8.057249999999990564e+01 -1.736646241772311650e-95
8.078624999999991019e+01 -6.862032579682582504e-96
8.099999999999991473e+01 1.087519618872957416e-95
8.121374999999991928e+01 3.481382586865147976e-95
8.142749999999989541e+01 6.173983909561735318e-95
8.164124999999989996e+01 8.600299822553191726e-95
8.185499999999990450e+01 9.978444921520470331e-95
8.206874999999990905e+01 9.407785077511598183e-95
8.228249999999991360e+01 6.048314911695470250e-95
8.249624999999991815e+01 -6.254318139889349281e-96
8.270999999999989427e+01 -1.052587411197820235e-94
8.292374999999989882e+01 -2.266608650700772843e-94
8.313749999999990337e+01 -3.496775886714551011e-94
8.335124999999990791e+01 -4.426155149191380650e-94
8.356499999999991246e+01 -4.657611319945614083e-94
8.377874999999991701e+01 -3.778376367409463398e-94
8.399249999999989313e+01 -1.461054795517429009e-94
8.420624999999989768e+01 2.407390643187070124e-94
8.441999999999990223e+01 7.588705942389563914e-94
8.463374999999990678e+01 1.338053471088438525e-93
8.484749999999991132e+01 1.856935524415424284e-93
8.506124999999991587e+01 2.149413684943254425e-93
8.527499999999989200e+01 2.025888221226666853e-93
8.548874999999989654e+01 1.311206266350898986e-93
8.570249999999990109e+01 -1.023842363026154728e-94
8.591624999999990564e+01 -2.193699913901551781e-93
8.612999999999991019e+01 -4.754340173168766330e-93
8.634374999999991473e+01 -7.350457571095142993e-93
8.655749999999989086e+01 -9.324398997686366082e-93
8.677124999999989541e+01 -9.855372623937240236e-93
8.698499999999989996e+01 -8.092325624041970017e-93
8.719874999999990450e+01 -3.359908379833017332e-93
8.741249999999990905e+01 4.580136570139828162e-93
8.762624999999991360e+01 1.525280755278824350e-92
8.783999999999991815e+01 2.724318209567561695e-92
8.805374999999989427e+01 3.810203013490040566e-92
8.826749999999989882e+01 4.447253164506735662e-92
8.848124999999990337e+01 4.251298195908699685e-92
8.869499999999990791e+01 2.865034180229345551e-92
8.890874999999991246e+01 6.311075336831529589e-94
8.912249999999991701e+01 -4.125682332929317065e-92
8.933624999999989313e+01 -9.302271621838879277e-92
8.954999999999989768e+01 -1.461997056224333981e-91
8.976374999999990223e+01 -1.878458407363977728e-91
8.997749999999990678e+01 -2.016931575193190603e-91
9.019124999999991132e+01 -1.707040708278335989e-91
9.040499999999991587e+01 -8.105855488821750511e-92
9.061874999999989200e+01 7.275945587485466142e-92
9.083249999999989654e+01 2.825484372190324352e-91
9.104624999999990109e+01 5.218743725996767393e-91
9.125999999999990564e+01 7.440384266918428029e-91
9.147374999999991019e+01 8.842355336556992377e-91
9.168749999999991473e+01 8.673601899031702209e-91
9.190124999999989086e+01 6.221720274824028835e-91
9.211499999999989541e+01 1.012539611835653267e-91
9.232874999999989996e+01 -6.955489248468334369e-91
9.254249999999990450e+01 -1.698507529186080229e-90
9.275624999999990905e+01 -2.752337959220879057e-90
9.296999999999991360e+01 -3.614764321829981059e-90
9.318374999999988972e+01 -3.976440488537393581e-90
9.339749999999989427e+01 -3.507315918167860950e-90
9.361124999999989882e+01 -1.930235235003325948e-90
9.382499999999990337e+01 8.839634951468575123e-91
9.403874999999990791e+01 4.813737164790426511e-90
9.425249999999991246e+01 9.398873525728300072e-90
9.446624999999988859e+01 1.379644191376313689e-89
9.467999999999989313e+01 1.681245648446148889e-89
9.489374999999989768e+01 1.703687905062717267e-89
9.510749999999990223e+01 1.309648484665396646e-89
9.532124999999990678e+01 4.017208426199359349e-90
9.553499999999991132e+01 -1.034391812325714500e-89
9.574874999999988745e+01 -2.887328867644256739e-89
9.596249999999989200e+01 -4.889164068971956166e-89
9.617624999999989654e+01 -6.609328601497921742e-89
9.638999999999990109e+01 -7.486460344028941169e-89
9.660374999999990564e+01 -6.907840236061135173e-89
9.681749999999991019e+01 -4.338623106105178120e-89
9.703124999999988631e+01 5.083897168734177869e-90
9.724499999999989086e+01 7.486127940819418020e-89
9.745874999999989541e+01 1.584864060932138354e-88
9.767249999999989996e+01 2.415978498201869861e-88
9.788624999999990450e+01 3.033181961126664396e-88
9.809999999999990905e+01 3.184410394386474320e-88
9.831374999999988518e+01 2.617021928433727397e-88
9.852749999999988972e+01 1.140283453577327195e-88
9.874124999999989427e+01 -1.298853096346807810e-88
9.895499999999989882e+01 -4.539444738083750622e-88
9.916874999999990337e+01 -8.148440190052808270e-88
9.938249999999990791e+01 -1.140348167592146665e-87
9.959624999999988404e+01 -1.333953706512982368e-87
9.980999999999988859e+01 -1.287684082387359992e-87
1.000237499999998931e+02 -9.035384474043424542e-88
1.002374999999998977e+02 -1.222119276278073096e-88
1.004512499999999022e+02 1.044723394035281446e-87
1.006649999999999068e+02 2.485564685878210283e-87
1.008787499999998829e+02 3.970696288944110168e-87
1.010924999999998875e+02 5.155836221917322671e-87
1.013062499999998920e+02 5.614972201570662868e-87
1.015199999999998965e+02 4.908210802946388367e-87
1.017337499999999011e+02 2.683497951946040450e-87
1.019474999999999056e+02 -1.197639654517963649e-87
1.021612499999999102e+02 -6.530493865222589143e-87
1.023749999999998863e+02 -1.266381638702106176e-86
1.025887499999998909e+02 -1.845975654346566318e-86
1.028024999999998954e+02 -2.235507942853983168e-86
1.030162499999999000e+02 -2.255365706663929510e-86
1.032299999999999045e+02 -1.736133232263941353e-86
1.034437499999999091e+02 -5.644288736844999678e-87
1.036574999999998852e+02 1.264650601859187487e-86
1.038712499999998897e+02 3.598370359313825503e-86
1.040849999999998943e+02 6.093927009527880083e-86
1.042987499999998988e+02 8.218015742285526124e-86
1.045124999999999034e+02 9.292555112172350475e-86
1.047262499999999079e+02 8.595676904970933895e-86
1.049399999999998840e+02 5.517604014838982921e-86
1.051537499999998886e+02 -2.424929028128169352e-87
1.053674999999998931e+02 -8.468607757423125623e-86
1.055812499999998977e+02 -1.825464927027088594e-85
1.057949999999999022e+02 -2.792293050535258959e-85
1.060087499999999068e+02 -3.509399751535247702e-85
1.062224999999998829e+02 -3.695648633622454479e-85
1.064362499999998875e+02 -3.075823935873072858e-85
1.066499999999998920e+02 -1.449544683523044454e-85
1.068637499999998965e+02 1.228140785734799576e-85
1.070774999999999011e+02 4.768925394637003695e-85
1.072912499999999056e+02 8.696161942618532425e-85
1.075049999999998818e+02 1.223558325091890673e-84
1.077187499999998863e+02 1.437368019343167995e-84
1.079324999999998909e+02 1.399859606516725165e-84
1.081462499999998954e+02 1.012481891664319255e-84
1.083599999999999000e+02 2.183285470980488262e-85
1.085737499999999045e+02 -9.665075640979526325e-85
1.087874999999998806e+02 -2.425779119291787704e-84
1.090012499999998852e+02 -3.928431104683698622e-84
1.092149999999998897e+02 -5.135253568723623484e-84
1.094287499999998943e+02 -5.634233814352153685e-84
1.096424999999998988e+02 -5.008215169837104510e-84
1.098562499999999034e+02 -2.932222959908930613e-84
1.100699999999998795e+02 7.104126948853049682e-85
1.102837499999998840e+02 5.713067796738958487e-84
1.104974999999998886e+02 1.145994998803099928e-83
1.107112499999998931e+02 1.690199775314458655e-83
1.109249999999998977e+02 2.062598763461950041e-83
1.111387499999999022e+02 2.103900023767389364e-83
1.113524999999998784e+02 1.667195090997885235e-83
1.115662499999998829e+02 6.578939148893191175e-84
1.117799999999998875e+02 -9.223309036564678281e-84
1.119937499999998920e+02 -2.936409898319377507e-83
1.122074999999998965e+02 -5.088836008934154877e-83
1.124212499999999011e+02 -6.930769664109856986e-83
1.126349999999998772e+02 -7.903538827266976849e-83
1.128487499999998818e+02 -7.425794152670579082e-83
1.130624999999998863e+02 -5.021309453306934017e-83
1.132762499999998909e+02 -4.735241308199277840e-84
1.134899999999998954e+02 6.019037482527950864e-83
1.137037499999999000e+02 1.372292491961608282e-82
1.139174999999998761e+02 2.132808201016228511e-82
1.141312499999998806e+02 2.702532638870896960e-82
1.143449999999998852e+02 2.873199098279941447e-82
1.145587499999998897e+02 2.447106753395612122e-82
1.147724999999998943e+02 1.287491075483174509e-82
1.149862499999998988e+02 -6.256317518056573372e-83
1.151999999999998749e+02 -3.145156943713131320e-82
1.154137499999998795e+02 -5.926112130032703401e-82
1.156274999999998840e+02 -8.429213751240391808e-82
1.158412499999998886e+02 -9.971175631670611394e-82
1.160549999999998931e+02 -9.827926209734347083e-82
1.162687499999998977e+02 -7.386766941335070813e-82
1.164824999999999022e+02 -2.330456154816074027e-82
1.166962499999998784e+02 5.177767233041427122e-82
1.169099999999998829e+02 1.435110974090104126e-81
1.171237499999998875e+02 2.372720373110406022e-81
1.173374999999998920e+02 3.125315230452544247e-81
1.175512499999998965e+02 3.453850675401215200e-81
1.177649999999999011e+02 3.127899724732127696e-81
1.179787499999998772e+02 1.981481896022348911e-81
1.181924999999998818e+02 -2.574182627325361675e-83
1.184062499999998863e+02 -2.754172733322385340e-81
1.186199999999998909e+02 -5.851919427043990648e-81
1.188337499999998954e+02 -8.759638010524776916e-81
1.190474999999999000e+02 -1.076449813497955484e-80
1.192612499999998761e+02 -1.110788932711912492e-80
1.194749999999998806e+02 -9.140520015167512924e-81
1.196887499999998852e+02 -4.505311169245350555e-81
1.199024999999998897e+02 2.684659980222627876e-81
1.201162499999998943e+02 1.171574990300465742e-80
1.203299999999998988e+02 2.123648358081759431e-80
1.205437499999998749e+02 2.935222269019818568e-80
1.207574999999998795e+02 3.387223456280989537e-80
1.209712499999998840e+02 3.270044953393718812e-80
1.211849999999998886e+02 2.432471520489551123e-80
1.213987499999998931e+02 8.322160255464596822e-81
1.216124999999998977e+02 -1.423066979090920592e-80
1.218262499999998738e+02 -4.056509600060904588e-80
1.220399999999998784e+02 -6.635146985960449447e-80
1.222537499999998829e+02 -8.621393263506675179e-80
1.224674999999998875e+02 -9.461290824288743629e-80
1.226812499999998920e+02 -8.698555665876130931e-80
1.228949999999998965e+02 -6.094102084029816196e-80
1.231087499999998727e+02 -1.723938645443027757e-80
1.233224999999998772e+02 3.973283911577297933e-80
1.235362499999998818e+02 1.022214476588946703e-79
1.237499999999998863e+02 1.601917500143297688e-79
1.239637499999998909e+02 2.031353276768563029e-79
1.241774999999998954e+02 2.222545950458813111e-79
1.243912499999998715e+02 2.124810083525067319e-79
1.246049999999998761e+02 1.736836793069593536e-79
1.248187499999998806e+02 1.104988805564732142e-79
1.250324999999998852e+02 3.050054178332314435e-80
1.252462499999998897e+02 -5.907031393455130421e-80
1.254599999999998943e+02 -1.551708659020414481e-79