2.024999999999579359e-01 2.034701879585469229e-110
4.162499999999482725e-01 1.982496485837619290e-110
6.299999999999528200e-01 9.008731351535085149e-111
8.437499999999573674e-01 -1.867740148117723470e-110
1.057499999999947704e+00 -6.905949920735079879e-110
1.271249999999952252e+00 -1.435744522836691798e-109
1.484999999999956799e+00 -2.337618520084505995e-109
1.698749999999947136e+00 -3.145007595731944748e-109
1.912499999999951683e+00 -3.378447848494053886e-109
2.126249999999956231e+00 -2.309695321563603232e-109
2.339999999999946567e+00 9.651384831784933918e-110
2.553749999999951115e+00 7.295299757507744167e-109
2.767499999999955662e+00 1.703148966722593434e-108
2.981249999999945999e+00 2.935171593189336067e-108
3.194999999999950546e+00 4.142755716382171894e-108
3.408749999999955094e+00 4.764392013203036973e-108
3.622499999999945430e+00 3.927343797245017939e-108
3.836249999999949978e+00 5.201372024568656560e-109
4.049999999999954525e+00 -6.558132140215155375e-108
4.263749999999944862e+00 -1.790740155034127612e-107
4.477499999999949409e+00 -3.287362347532578226e-107
4.691249999999953957e+00 -4.860462011181456735e-107
4.904999999999944293e+00 -5.913705062370026224e-107
5.118749999999948841e+00 -5.493482200857504682e-107
5.332499999999953388e+00 -2.350443435288919695e-107
5.546249999999943725e+00 4.815556841164882658e-107
5.759999999999948272e+00 1.685792721543066719e-106
5.973749999999952820e+00 3.340567287895361654e-106
6.187499999999943157e+00 5.186947215087373404e-106
6.401249999999947704e+00 6.644387161756384710e-106
6.614999999999952252e+00 6.751375857679343434e-106
6.828749999999942588e+00 4.207829259133856369e-106
7.042499999999947136e+00 -2.405598556624733945e-106
7.256249999999951683e+00 -1.416048272607286669e-105
7.469999999999942020e+00 -3.103204043843450581e-105
7.683749999999946567e+00 -5.091856270298419955e-105
7.897499999999951115e+00 -6.861551905163765178e-105
8.111249999999941451e+00 -7.511379615042951545e-105
8.324999999999945999e+00 -5.778702815524054054e-105
8.538749999999950546e+00 -2.174652143330764076e-106
8.752499999999940883e+00 1.039470969321524911e-104
8.966249999999945430e+00 2.638127563605990285e-104
9.179999999999949978e+00 4.625492056129745089e-104
9.393749999999940314e+00 6.571984744481253830e-104
9.607499999999944862e+00 7.690103387248597155e-104
9.821249999999949409e+00 6.829201172613961784e-104
1.003499999999993975e+01 2.605313816733119679e-104
1.024874999999994429e+01 -6.269127339585333416e-104
1.046249999999994884e+01 -2.041258139248611204e-103
1.067624999999993918e+01 -3.897178831368674261e-103
1.088999999999994373e+01 -5.870033631511460525e-103
1.110374999999994827e+01 -7.316665400083425594e-103
1.131749999999993861e+01 -7.249672363332939663e-103
1.153124999999994316e+01 -4.419121674298830180e-103
1.174499999999994770e+01 2.440008026928003295e-103
1.195874999999993804e+01 1.415019781995154129e-102
1.217249999999994259e+01 3.042067727554418623e-102
1.238624999999994714e+01 4.903709268916064436e-102
1.259999999999993747e+01 6.509610807656975651e-102
1.281374999999994202e+01 7.060246609691626017e-102
1.302749999999994657e+01 5.486978411602049396e-102
1.324124999999995111e+01 6.228369485410926631e-103
1.345499999999994145e+01 -8.452817103510431349e-102
1.366874999999994600e+01 -2.188110269720209756e-101
1.388249999999995055e+01 -3.834379044898832673e-101
1.409624999999994088e+01 -5.436505276253018756e-101
1.430999999999994543e+01 -6.383154925213656958e-101
1.452374999999994998e+01 -5.807687435957654049e-101
1.473749999999994031e+01 -2.694778444694851089e-101
1.495124999999994486e+01 3.875214795020218222e-101
1.516499999999994941e+01 1.432259452637128442e-100
1.537874999999993975e+01 2.802363232372815547e-100
1.559249999999994429e+01 4.270756700183501876e-100
1.580624999999994884e+01 5.396341007975402524e-100
1.601999999999993918e+01 5.511701485145073508e-100
1.623374999999994373e+01 3.781082046479026490e-100
1.644749999999994827e+01 -6.370978917458910935e-101
1.666124999999993861e+01 -8.299166567714228155e-100
1.687499999999994316e+01 -1.905919243935153928e-99
1.708874999999994770e+01 -3.157495222595033820e-99
1.730249999999993804e+01 -4.285050219461832318e-99
1.751624999999994259e+01 -4.800356207242288290e-99
1.772999999999994714e+01 -4.051173918162495994e-99
1.794374999999993747e+01 -1.321890038470819742e-99
1.815749999999994202e+01 3.966721777956674750e-99
1.837124999999994657e+01 1.195242296963299025e-98
1.858499999999993690e+01 2.194685934114449963e-98
1.879874999999994145e+01 3.204428220011627097e-98
1.901249999999994600e+01 3.885413979154494201e-98
1.922624999999993634e+01 3.754371380230437019e-98
1.943999999999994088e+01 2.240998932561750996e-98
1.965374999999994543e+01 -1.181820451271353016e-98
1.986749999999993577e+01 -6.784811274212912674e-98
2.008124999999994031e+01 -1.429730162337159831e-97
2.029499999999994486e+01 -2.259471160010355931e-97
2.050874999999993520e+01 -2.944525880661284497e-97
2.072249999999993975e+01 -3.144666281210188887e-97
2.093624999999994429e+01 -2.431530345211144074e-97
2.114999999999993463e+01 -3.689522091805070184e-98
2.136374999999993918e+01 3.344805647473182948e-97
2.157749999999994373e+01 8.675875873618572770e-97
2.179124999999993406e+01 1.501989864243584910e-96
2.200499999999993861e+01 2.098856821506687001e-96
2.221874999999994316e+01 2.430562376647422613e-96
2.243249999999993349e+01 2.192702172671476076e-96
2.264624999999993804e+01 1.050705889162827376e-96
2.285999999999994259e+01 -1.269703762899172123e-96
2.307374999999993292e+01 -4.847119361861192364e-96
2.328749999999993747e+01 -9.397424053659835176e-96
2.350124999999994202e+01 -1.410860194883328140e-95
2.371499999999993236e+01 -1.753409144441742854e-95
2.392874999999993690e+01 -1.762202546987658814e-95
2.414249999999994145e+01 -1.196693378329540224e-95
2.435624999999993179e+01 1.642836512550574700e-96
2.456999999999993634e+01 2.435595597829755284e-95
2.478374999999994088e+01 5.513020970507092981e-95
2.499749999999993122e+01 8.953904604989615789e-95
2.521124999999993577e+01 1.188622001137423565e-94
2.542499999999994031e+01 1.299586963560281446e-94
2.563874999999993065e+01 1.065066002399741793e-94
2.585249999999993520e+01 3.214563091001164895e-95
2.606624999999993975e+01 -1.041999791373499035e-94
2.627999999999994429e+01 -3.010684364002398638e-94
2.649374999999993463e+01 -5.363322161036788091e-94
2.670749999999993918e+01 -7.602554543943931427e-94
2.692124999999994373e+01 -8.928086687033757755e-94
2.713499999999993406e+01 -8.290007342216915298e-94
2.734874999999993861e+01 -4.559106394271324195e-94
2.756249999999994316e+01 3.162290737049531321e-94
2.777624999999993349e+01 1.509531660954222265e-93
2.798999999999993804e+01 3.025944146201515146e-93
2.820374999999994259e+01 4.598319044364490016e-93
2.841749999999993292e+01 5.763201834376550777e-93
2.863124999999993747e+01 5.878463391622839947e-93
2.884499999999994202e+01 4.209738493036030663e-93
2.905874999999993236e+01 1.033031866163721794e-94
2.927249999999993690e+01 -6.753100648417433858e-93
2.948624999999994145e+01 -1.600709989384096005e-92
2.969999999999993179e+01 -2.631833216039320171e-92
2.991374999999993634e+01 -3.513742042245863632e-92
3.012749999999994088e+01 -3.872360515492969998e-92
3.034124999999993122e+01 -3.254959608655382557e-92
3.055499999999993577e+01 -1.221519305231271541e-92
3.076874999999994031e+01 2.509151132109043565e-92
3.098249999999993065e+01 7.869425209276982183e-92
3.119624999999993520e+01 1.424061878727061888e-91
3.140999999999993975e+01 2.029402120868778255e-91
3.162374999999993008e+01 2.395230178331740386e-91
3.183749999999993463e+01 2.255941067216865103e-91
3.205124999999993918e+01 1.333747835316937510e-91
3.226499999999992951e+01 -5.830900728343361699e-92
3.247874999999993406e+01 -3.533370772662017831e-91
3.269249999999993861e+01 -7.262558034535001535e-91
3.290624999999992895e+01 -1.111766914632638769e-90
3.311999999999993349e+01 -1.399932689404735056e-90
3.333374999999993804e+01 -1.442111238816228257e-90
3.354749999999992838e+01 -1.072422446605408823e-90
3.376124999999993292e+01 -1.477244664325188460e-91
3.397499999999993747e+01 1.394767607661915168e-90
3.418874999999992781e+01 3.469016268876605281e-90
3.440249999999993236e+01 5.775094177158177084e-90
3.461624999999993690e+01 7.759373382825704242e-90
3.482999999999992724e+01 8.627382347839247558e-90
3.504374999999993179e+01 7.437302229522235373e-90
3.525749999999993634e+01 3.294478703924583137e-90
3.547124999999992667e+01 -4.350995077230231389e-90
3.568499999999993122e+01 -1.533145820541455352e-89
3.589874999999993577e+01 -2.838075478982746680e-89
3.611249999999992610e+01 -4.085474856949660435e-89
3.632624999999993065e+01 -4.869743186440159765e-89
3.653999999999993520e+01 -4.680855238945070729e-89
3.675374999999992554e+01 -2.994065439011654038e-89
3.696749999999993008e+01 5.829342970909922958e-90
3.718124999999993463e+01 6.115369612039166792e-89
3.739499999999992497e+01 1.312919367521507964e-88
3.760874999999992951e+01 2.043401000751133396e-88
3.782249999999993406e+01 2.605405289525462236e-88
3.803624999999993861e+01 2.735059385559086034e-88
3.824999999999994316e+01 2.141091482510688117e-88
3.846374999999991928e+01 5.743800049382989317e-89
3.867749999999992383e+01 -2.074574300580678383e-88
3.889124999999992838e+01 -5.662764890854309709e-88
3.910499999999993292e+01 -9.690603853412816643e-88
3.931874999999993747e+01 -1.324216129574443174e-87
3.953249999999994202e+01 -1.501254145875623711e-87
3.974624999999991815e+01 -1.346416028392854046e-87
3.995999999999992269e+01 -7.139830898617411735e-88
4.017374999999992724e+01 4.869275326276337942e-88
4.038749999999993179e+01 2.234884127874893876e-87
4.060124999999993634e+01 4.338595005333730811e-87
4.081499999999994088e+01 6.395905569362291669e-87
4.102874999999991701e+01 7.790484309009407237e-87
4.124249999999992156e+01 7.748298608866540151e-87
4.145624999999992610e+01 5.471083344617090453e-87
4.166999999999993065e+01 3.514217367809352516e-88
4.188374999999993520e+01 -7.746836572946856744e-87
4.209749999999993975e+01 -1.818687344040390176e-86
4.231124999999991587e+01 -2.931043618277778238e-86
4.252499999999992042e+01 -3.834301351743343026e-86
4.273874999999992497e+01 -4.156443173552834309e-86
4.295249999999992951e+01 -3.484231404297161014e-86
4.316624999999993406e+01 -1.457587162073172562e-86
4.337999999999993861e+01 2.099325880285890819e-86
4.359374999999991473e+01 7.027423687046705467e-86
4.380749999999991928e+01 1.269440105956482591e-85
4.402124999999992383e+01 1.791461959890710635e-85
4.423499999999992838e+01 2.098134141200304135e-85
4.444874999999993292e+01 1.986299579088694301e-85
4.466249999999993747e+01 1.259677649400687433e-85
4.487624999999991360e+01 -2.124771440566853083e-86
4.508999999999991815e+01 -2.423507108436186891e-85
4.530374999999992269e+01 -5.157326012274229900e-85
4.551749999999992724e+01 -7.936295333595951352e-85
4.573124999999993179e+01 -1.001416848825082806e-84
4.594499999999993634e+01 -1.044004116462111103e-84
4.615874999999991246e+01 -8.213177800325663006e-85
4.637249999999991701e+01 -2.533771534801471244e-85
4.658624999999992156e+01 6.869320637410526251e-85
4.679999999999992610e+01 1.938417271819260196e-84
4.701374999999993065e+01 3.321880574006299380e-84
4.722749999999993520e+01 4.527382307375429022e-84
4.744124999999993975e+01 5.130853583195818598e-84
4.765499999999991587e+01 4.650792318395622649e-84
4.786874999999992042e+01 2.650302047012450272e-84
4.808249999999992497e+01 -1.120026402139049868e-84
4.829624999999992951e+01 -6.556447807834399503e-84
4.850999999999993406e+01 -1.304723966094280089e-83
4.872374999999993861e+01 -1.937668745233434641e-83
4.893749999999991473e+01 -2.374436564262591716e-83
4.915124999999991928e+01 -2.395360884463355681e-83
4.936499999999992383e+01 -1.780440783604080698e-83
4.957874999999992838e+01 -3.688182841551372533e-84
4.979249999999993292e+01 1.867438239373277807e-83
5.000624999999993747e+01 4.748000546509713330e-83
5.021999999999991360e+01 7.827029881838228195e-83
5.043374999999991815e+01 1.037865092632607645e-82
5.064749999999992269e+01 1.145063281967526223e-82
5.086124999999992724e+01 1.000611648706519750e-82
5.107499999999993179e+01 5.159390608170278165e-83
5.128874999999993634e+01 -3.510649316733921777e-83
5.150249999999991246e+01 -1.561481620584198481e-82
5.171624999999991701e+01 -2.965247219784476097e-82
5.192999999999992156e+01 -4.285779016208706947e-82
5.214374999999992610e+01 -5.130773845289325989e-82
5.235749999999993065e+01 -5.039243356795926776e-82
5.257124999999993520e+01 -3.570113437814675354e-82
5.278499999999991132e+01 -4.292252692262992233e-83
5.299874999999991587e+01 4.380226983264908866e-82
5.321249999999992042e+01 1.041235855613352027e-81
5.342624999999992497e+01 1.667946663496747114e-81
5.363999999999992951e+01 2.164795566666254571e-81
5.385374999999993406e+01 2.337664216385114647e-81
5.406749999999991019e+01 1.982993560182994152e-81
5.428124999999991473e+01 9.367774202472767953e-82
5.449499999999991928e+01 -8.631668089116779133e-82
5.470874999999992383e+01 -3.311673605244012348e-81
5.492249999999992838e+01 -6.083143682741441195e-81
5.513624999999993292e+01 -8.610824272659797820e-81
5.534999999999990905e+01 -1.011937768742915383e-80
5.556374999999991360e+01 -9.727614956713042647e-81
5.577749999999991815e+01 -6.627862515413148369e-81
5.599124999999992269e+01 -3.313917983592404865e-82
5.620499999999992724e+01 9.052968232572266657e-81
5.641874999999993179e+01 2.056411204553252257e-80
5.663249999999990791e+01 3.223552232787119257e-80
5.684624999999991246e+01 4.113135478532677174e-80
5.705999999999991701e+01 4.365106665607930743e-80
5.727374999999992156e+01 3.614900845780560913e-80
5.748749999999992610e+01 1.585507278379416925e-80
5.770124999999993065e+01 -1.800221537589599571e-80
5.791499999999990678e+01 -6.306705703125168235e-80
5.812874999999991132e+01 -1.130115674322193384e-79
5.834249999999991587e+01 -1.573241439710429111e-79
5.855624999999992042e+01 -1.820772828217104429e-79
5.876999999999992497e+01 -1.719269034231125233e-79
5.898374999999992951e+01 -1.133927069772198504e-79
5.919749999999990564e+01 8.386365263899250060e-82
5.941124999999991019e+01 1.672267577783334517e-79
5.962499999999991473e+01 3.673357234461337733e-79
5.983874999999991928e+01 5.657657123596306151e-79
6.005249999999992383e+01 7.114807167839839152e-79
6.026624999999992838e+01 7.437249943705608579e-79
6.047999999999990450e+01 6.030815899835794215e-79
6.069374999999990905e+01 2.471582891841560487e-79
6.090749999999991360e+01 -3.310270182895538227e-79
6.112124999999991815e+01 -1.085439307672597950e-78
6.133499999999992269e+01 -1.905024498364403687e-78
6.154874999999992724e+01 -2.612853027275190437e-78
6.176249999999993179e+01 -2.981563803815609265e-78
6.197624999999990791e+01 -2.768392761148866053e-78
6.218999999999991246e+01 -1.769539227220576449e-78
6.240374999999991701e+01 1.113947523120982359e-79
6.261749999999992156e+01 2.792032755553649407e-78
6.283124999999992610e+01 5.953670730966298977e-78
6.304499999999993065e+01 9.018093141213115200e-78
6.325874999999990678e+01 1.117954716947815364e-77
6.347249999999991132e+01 1.150773550350312813e-77
6.368624999999991587e+01 9.126614561479125484e-78
6.389999999999992042e+01 3.456728351776395995e-78
6.411374999999992497e+01 -5.512477756574099643e-78
6.432749999999992951e+01 -1.697585435172031440e-77
6.454124999999990564e+01 -2.916405729253460844e-77
6.475499999999991019e+01 -3.937250464446337116e-77
6.496874999999991473e+01 -4.423600891597155137e-77
6.518249999999991928e+01 -4.028460386163120096e-77
6.539624999999992383e+01 -2.476060853900290558e-77
6.560999999999992838e+01 3.396890708897476510e-78
6.582374999999990450e+01 4.257533326091436488e-77
6.603749999999990905e+01 8.776649524785768487e-77
6.625124999999991360e+01 1.303851755438593739e-76
6.646499999999991815e+01 1.588995004369881477e-76
6.667874999999992269e+01 1.604536799477042172e-76
6.689249999999992724e+01 1.234915640269808446e-76
6.710624999999990337e+01 4.114337076170875421e-77
6.731999999999990791e+01 -8.515018115991475335e-77
6.753374999999991246e+01 -2.425775617109014516e-76
6.774749999999991701e+01 -4.054497317396969876e-76
6.796124999999992156e+01 -5.362556977075313349e-76
6.817499999999992610e+01 -5.900639901834875867e-76
6.838874999999990223e+01 -5.225417973901956945e-76
6.860249999999990678e+01 -3.010758347451516474e-76
6.881624999999991132e+01 8.249936293136152053e-77
6.902999999999991587e+01 6.000619800735682327e-76
6.924374999999992042e+01 1.179533357942858444e-75
6.945749999999992497e+01 1.704943763546052381e-75
6.967124999999990109e+01 2.027310859180459180e-75
6.988499999999990564e+01 1.987959991194862453e-75
7.009874999999991019e+01 1.453484351535542644e-75
7.031249999999991473e+01 3.583434423312505132e-76
7.052624999999991928e+01 -1.252377976928925379e-75
7.073999999999992383e+01 -3.190524390388511226e-75
7.095374999999989996e+01 -5.114790389889174829e-75
7.116749999999990450e+01 -6.554269087600310592e-75
7.138124999999990905e+01 -6.972989338797254549e-75
7.159499999999991360e+01 -5.875544014608034727e-75
7.180874999999991815e+01 -2.943784041282805109e-75
7.202249999999992269e+01 1.817042124134132961e-75
7.223624999999989882e+01 7.955068872640540025e-75
7.244999999999990337e+01 1.451076166442737981e-74
7.266374999999990791e+01 2.005707893912379394e-74
7.287749999999991246e+01 2.286990066787127594e-74
7.309124999999991701e+01 2.123668527116578733e-74
7.330499999999992156e+01 1.388009203957702431e-74
7.351874999999989768e+01 4.358287924571899328e-76
7.373249999999990223e+01 -1.811279073196056873e-74
7.394624999999990678e+01 -3.916769355841528028e-74
7.415999999999991132e+01 -5.854624524915283065e-74
7.437374999999991587e+01 -7.091434735426188737e-74
7.458749999999992042e+01 -7.066782891248617716e-74
7.480124999999992497e+01 -5.321295600544995706e-74
7.501499999999990109e+01 -1.647842125146689769e-74
7.522874999999990564e+01 3.763057011159120828e-74
7.544249999999991019e+01 1.022211398344757064e-73
7.565624999999991473e+01 1.652649193964449609e-73
7.586999999999991928e+01 2.106770602984665827e-73
7.608374999999992383e+01 2.208151844446920034e-73
7.629749999999989996e+01 1.803070398823661561e-73
7.651124999999990450e+01 8.074544893096946797e-74
7.672499999999990905e+01 -7.460607610789918498e-74
7.693874999999991360e+01 -2.672832516550589734e-73
7.715249999999991815e+01 -4.626075413108246244e-73
7.736624999999992269e+01 -6.124036038716120757e-73
7.757999999999989882e+01 -6.621770492360006893e-73
7.779374999999990337e+01 -5.626236752179651995e-73
7.800749999999990791e+01 -2.841842805328618743e-73
7.822124999999991246e+01 1.679170800006383673e-73
7.843499999999991701e+01 7.418285732883502298e-73
7.864874999999992156e+01 1.334702116444352907e-72
7.886249999999989768e+01 1.799823784599665538e-72
7.907624999999990223e+01 1.967869433534706978e-72
7.928999999999990678e+01 1.682290477711315823e-72
7.950374999999991132e+01 8.451802707691557113e-73
7.971749999999991587e+01 -5.341832074543211060e-73
7.993124999999992042e+01 -2.299705292446012396e-72
8.014499999999989654e+01 -4.131627704908130728e-72
8.035874999999990109e+01 -5.565948301831620502e-72
8.057249999999990564e+01 -6.059546524232723115e-72
8.078624999999991019e+01 -5.102343204316862869e-72
8.099999999999991473e+01 -2.366105021076672594e-72
8.121374999999991928e+01 2.134250966939925893e-72
8.142749999999989541e+01 7.904061695523427340e-72
8.164124999999989996e+01 1.390296526865602464e-71
8.185499999999990450e+01 1.859590063625500161e-71
8.206874999999990905e+01 2.015590477010486086e-71
8.228249999999991360e+01 1.682837401064440738e-71
8.249624999999991815e+01 7.428441456582726247e-72
8.270999999999989427e+01 -8.103211412632025511e-72
8.292374999999989882e+01 -2.820695836220948512e-71
8.313749999999990337e+01 -4.942819153251907853e-71
8.335124999999990791e+01 -6.652191203171171564e-71
8.356499999999991246e+01 -7.307102166332595687e-71
8.377874999999991701e+01 -6.267449479650180919e-71
8.399249999999989313e+01 -3.063832488659661525e-71
8.420624999999989768e+01 2.405534374044811665e-71
8.441999999999990223e+01 9.689132083443056938e-71
8.463374999999990678e+01 1.766027229914303283e-70
8.484749999999991132e+01 2.451750750634354862e-70
8.506124999999991587e+01 2.795922915173860360e-70
8.527499999999989200e+01 2.556195090075095621e-70
8.548874999999989654e+01 1.535252468171274198e-70
8.570249999999990109e+01 -3.488684662726049717e-71
8.591624999999990564e+01 -2.991630765834237421e-70
8.612999999999991019e+01 -6.047668106659853540e-70
8.634374999999991473e+01 -8.914152994815022511e-70
8.655749999999989086e+01 -1.077210033025727078e-69
8.677124999999989541e+01 -1.069989686626008279e-69
8.698499999999989996e+01 -7.861359868860548749e-70
8.719874999999990450e+01 -1.753057935282082728e-70
8.741249999999990905e+01 7.525509970173498627e-70
8.762624999999991360e+01 1.903626370515817262e-69
8.783999999999991815e+01 3.087442057301037264e-69
8.805374999999989427e+01 4.022510632359963384e-69
8.826749999999989882e+01 4.366894253264907388e-69
8.848124999999990337e+01 3.776679982294740702e-69
8.869499999999990791e+01 1.989832466171974388e-69
8.890874999999991246e+01 -1.074365930421374337e-69
8.912249999999991701e+01 -5.217963154670638554e-69
8.933624999999989313e+01 -9.893626803759862138e-69
8.954999999999989768e+01 -1.418892468198705640e-68
8.976374999999990223e+01 -1.689248263570091675e-68
8.997749999999990678e+01 -1.666037158050586513e-68
9.019124999999991132e+01 -1.228461331803754319e-68
9.040499999999991587e+01 -3.041987693312792772e-69
9.061874999999989200e+01 1.092694226800562547e-68
9.083249999999989654e+01 2.828663463597857635e-68
9.104624999999990109e+01 4.632214820713112058e-68
9.125999999999990564e+01 6.100643973651468808e-68
9.147374999999991019e+01 6.740791989459446436e-68
9.168749999999991473e+01 6.048275779421411113e-68
9.190124999999989086e+01 3.622384780323558323e-68
9.211499999999989541e+01 -6.957280736953905722e-69
9.232874999999989996e+01 -6.684494242796360238e-68
9.254249999999990450e+01 -1.363543996337224759e-67
9.275624999999990905e+01 -2.031695026920000081e-67
9.296999999999991360e+01 -2.504567011918894934e-67
9.318374999999988972e+01 -2.589307342364310541e-67
9.339749999999989427e+01 -2.103447127146936882e-67
9.361124999999989882e+01 -9.217568024791700908e-68
9.382499999999990337e+01 9.709395112048850815e-68
9.403874999999990791e+01 3.430805320509243004e-67
9.425249999999991246e+01 6.122796468779634796e-67
9.446624999999988859e+01 8.519501339741181133e-67
9.467999999999989313e+01 9.943916778897080123e-67
9.489374999999989768e+01 9.664170648700294552e-67
9.510749999999990223e+01 7.039508438414988230e-67
9.532124999999990678e+01 1.704832671853464129e-67
9.553499999999991132e+01 -6.232863233841855441e-67
9.574874999999988745e+01 -1.602627404224888179e-66
9.596249999999989200e+01 -2.619757166324361638e-66
9.617624999999989654e+01 -3.457823188783059935e-66
9.638999999999990109e+01 -3.852222806854659614e-66
9.660374999999990564e+01 -3.531392523573896424e-66
9.681749999999991019e+01 -2.275642052284090974e-66
9.703124999999988631e+01 1.204459486404297907e-68
9.724499999999989086e+01 3.234447141065179960e-66
9.745874999999989541e+01 7.043630349670606448e-66
9.767249999999989996e+01 1.081830334286128232e-65
9.788624999999990450e+01 1.369362032565154878e-65
9.809999999999990905e+01 1.465764122488704012e-65
9.831374999999988518e+01 1.271936936745148051e-65
9.852749999999988972e+01 7.139213973099907971e-66
9.874124999999989427e+01 -2.304841592902395429e-66
9.895499999999989882e+01 -1.506060367896293792e-65
9.916874999999990337e+01 -2.961552371119407033e-65
9.938249999999990791e+01 -4.345034163582755100e-65
9.959624999999988404e+01 -5.319803502906410467e-65
9.980999999999988859e+01 -5.505381175088537036e-65
1.000237499999998931e+02 -4.544425268979777872e-65
1.002374999999998977e+02 -2.190960422607188041e-65
1.004512499999999022e+02 1.591181998246882421e-65
1.006649999999999068e+02 6.537405045303493816e-65
1.008787499999998829e+02 1.202181661946016908e-64
1.010924999999998875e+02 1.705233080494693296e-64
1.013062499999998920e+02 2.034420032574270681e-64
1.015199999999998965e+02 2.048645586994263932e-64
1.017337499999999011e+02 1.620102185910055030e-64
1.019474999999999056e+02 6.673950100702990577e-65
1.021612499999999102e+02 -8.085460979801303930e-65
1.023749999999998863e+02 -2.692503929559020465e-64
1.025887499999998909e+02 -4.735436397492834931e-64
1.028024999999998954e+02 -6.556404503027362443e-64
1.030162499999999000e+02 -7.673826582640610727e-64
1.032299999999999045e+02 -7.570587955696123489e-64
1.034437499999999091e+02 -5.791953661510152227e-64
1.036574999999998852e+02 -2.067752232018573914e-64
1.038712499999998897e+02 3.558186130992028051e-64
1.040849999999998943e+02 1.061639651949872181e-63
1.042987499999998988e+02 1.814871666314330137e-63
1.045124999999999034e+02 2.472582302421326146e-63
1.047262499999999079e+02 2.857227284100686740e-63
1.049399999999998840e+02 2.781315274908734509e-63
1.051537499999998886e+02 2.083579903785481682e-63
1.053674999999998931e+02 6.733064576938644907e-64
1.055812499999998977e+02 -1.423535890087196801e-63
1.057949999999999022e+02 -4.025473067204717322e-63
1.060087499999999068e+02 -6.774998473730870666e-63
1.062224999999998829e+02 -9.147553394833337284e-63
1.064362499999998875e+02 -1.049917526834955599e-62
1.066499999999998920e+02 -1.015722005429173517e-62
1.068637499999998965e+02 -7.551120405338137644e-63
1.070774999999999011e+02 -2.370584396494181525e-63
1.072912499999999056e+02 5.271793955570994711e-63
1.075049999999998818e+02 1.470597909978818147e-62
1.077187499999998863e+02 2.463655626319158297e-62
1.079324999999998909e+02 3.318023002695317162e-62
1.081462499999998954e+02 3.803980852787967549e-62
1.083599999999999000e+02 3.682863294575000669e-62
1.085737499999999045e+02 2.753318345676806689e-62
1.087874999999998806e+02 9.068379750184970486e-63
1.090012499999998852e+02 -1.815571807952928512e-62
1.092149999999998897e+02 -5.176901107616123283e-62
1.094287499999998943e+02 -8.721144803980046473e-62
1.096424999999998988e+02 -1.178709068118767150e-61
1.098562499999999034e+02 -1.356937355841406482e-61
1.100699999999998795e+02 -1.323132144193605433e-61
1.102837499999998840e+02 -1.006509241835376129e-61
1.104974999999998886e+02 -3.683273753214643068e-62
1.107112499999998931e+02 5.786000791227240969e-62
1.109249999999998977e+02 1.753905531740605976e-61
1.111387499999999022e+02 3.001701975596312692e-61
1.113524999999998784e+02 4.095141300524561456e-61
1.115662499999998829e+02 4.757024457703068248e-61
1.117799999999998875e+02 4.697973444576533168e-61
1.119937499999998920e+02 3.670639902549792530e-61
1.122074999999998965e+02 1.534635191927891852e-61
1.124212499999999011e+02 -1.677171212167972104e-61
1.126349999999998772e+02 -5.703891592651944194e-61
1.128487499999998818e+02 -1.002848580122593473e-60
1.130624999999998863e+02 -1.389123329626909697e-60
1.132762499999998909e+02 -1.635662723718318213e-60
1.134899999999998954e+02 -1.643886969145575176e-60
1.137037499999999000e+02 -1.328118054474787723e-60
1.139174999999998761e+02 -6.371698196098679813e-61
1.141312499999998806e+02 4.234501026046049890e-61
1.143449999999998852e+02 1.772942885811230607e-60
1.145587499999998897e+02 3.245168159177597003e-60
1.147724999999998943e+02 4.592070864624613563e-60
1.149862499999998988e+02 5.504517119115194093e-60
1.151999999999998749e+02 5.652352344066551615e-60
1.154137499999998795e+02 4.742300179314056765e-60
1.156274999999998840e+02 2.588322521227650869e-60
1.158412499999998886e+02 -8.152171013658532325e-61
1.160549999999998931e+02 -5.231049243094545704e-60
1.162687499999998977e+02 -1.014303688527616732e-59
1.164824999999999022e+02 -1.476273938222011840e-59
1.166962499999998784e+02 -1.809147289405982548e-59
1.169099999999998829e+02 -1.904427771770957502e-59
1.171237499999998875e+02 -1.663221214937294394e-59
1.173374999999998920e+02 -1.018680261867886722e-59
1.175512499999998965e+02 4.030957615506154957e-61
1.177649999999999011e+02 1.448400215560763902e-59
1.179787499999998772e+02 3.051010191420399150e-59
1.181924999999998818e+02 4.604609654154504046e-59
1.184062499999998863e+02 5.794292329014848679e-59
1.186199999999998909e+02 6.270896958208914241e-59
1.188337499999998954e+02 5.706895089278988406e-59
1.190474999999999000e+02 3.866382849986239257e-59
1.192612499999998761e+02 6.802847592573765789e-60
1.194749999999998806e+02 -3.685996829233578043e-59
1.196887499999998852e+02 -8.787910708195774841e-59
1.199024999999998897e+02 -1.389602864687531131e-58
1.201162499999998943e+02 -1.804287006500685813e-58
1.203299999999998988e+02 -2.013017463109961481e-58
1.205437499999998749e+02 -1.909547637180117612e-58
1.207574999999998795e+02 -1.412514837700065978e-58
1.209712499999998840e+02 -4.888164608669939623e-59
1.211849999999998886e+02 8.247253812631948175e-59
1.213987499999998931e+02 2.406060667908258233e-58
1.216124999999998977e+02 4.043873231660081840e-58
1.218262499999998738e+02 5.449112580253817830e-58
1.220399999999998784e+02 6.284799675464349029e-58
1.222537499999998829e+02 6.214200042892264481e-58
1.224674999999998875e+02 4.964020916357786079e-58
1.226812499999998920e+02 2.395422371379590448e-58
1.228949999999998965e+02 -1.428065705279860973e-58
1.231087499999998727e+02 -6.189408903866199933e-58
1.233224999999998772e+02 -1.129846151680471344e-57
1.235362499999998818e+02 -1.591724524527333155e-57
1.237499999999998863e+02 -1.903915547771550913e-57
1.239637499999998909e+02 -1.962381814462911685e-57
1.241774999999998954e+02 -1.677946235407313920e-57
1.243912499999998715e+02 -9.973358141105299881e-58
1.246049999999998761e+02 7.602281439117530355e-59
1.248187499999998806e+02 1.465384944526151315e-57
1.250324999999998852e+02 3.012580653598954860e-57
1.252462499999998897e+02 4.482474721576803616e-57
1.254599999999998943e+02 5.582936058467770167e-57
1.256737499999998704e+02 6.001270415627815284e-57
1.258874999999998749e+02 5.455316496986104240e-57
1.261012499999998795e+02 3.754171581427388143e-57
1.263149999999998840e+02 8.602553321249578905e-58
1.265287499999998886e+02 -3.058265904239318330e-57