2.024999999999579359e-01 8.202165802987793025e-100
4.162499999999482725e-01 1.106657223135389985e-99
6.299999999999528200e-01 1.208336365752170708e-99
8.437499999999573674e-01 9.209977199451886900e-100
1.057499999999947704e+00 1.438686536525300435e-101
1.271249999999952252e+00 -1.699662503451943533e-99
1.484999999999956799e+00 -4.256536406124783121e-99
1.698749999999947136e+00 -7.392173946609586718e-99
1.912499999999951683e+00 -1.038680440377841551e-98
2.126249999999956231e+00 -1.195174720810116681e-98
2.339999999999946567e+00 -1.024006447272983286e-98
2.553749999999951115e+00 -3.082496947994656953e-99
2.767499999999955662e+00 1.145100541239258193e-98
2.981249999999945999e+00 3.410454151473860154e-98
3.194999999999950546e+00 6.314241221141583557e-98
3.408749999999955094e+00 9.291113605180003795e-98
3.622499999999945430e+00 1.126851327976499279e-97
3.836249999999949978e+00 1.064727683288836164e-97
4.049999999999954525e+00 5.465773994893399559e-98
4.263749999999944862e+00 -6.161833913003151303e-98
4.477499999999949409e+00 -2.527120406317912303e-97
4.691249999999953957e+00 -5.095069316830860945e-97
4.904999999999944293e+00 -7.906709902973361373e-97
5.118749999999948841e+00 -1.011455296663055545e-96
5.332499999999953388e+00 -1.039478905670156802e-96
5.546249999999943725e+00 -7.047807310408708115e-97
5.759999999999948272e+00 1.679632378745597855e-97
5.973749999999952820e+00 1.698970733996935616e-96
6.187499999999943157e+00 3.864067608868670199e-96
6.401249999999947704e+00 6.386189119117519504e-96
6.614999999999952252e+00 8.632053020374536509e-96
6.828749999999942588e+00 9.556032690425298688e-96
7.042499999999947136e+00 7.749573610550030816e-96
7.256249999999951683e+00 1.662468285300517695e-96
7.469999999999942020e+00 -9.947566443269446495e-96
7.683749999999946567e+00 -2.731875035997334702e-95
7.897499999999951115e+00 -4.879917322871791697e-95
8.111249999999941451e+00 -6.994069461264525585e-95
8.324999999999945999e+00 -8.288341265475334907e-95
8.538749999999950546e+00 -7.648015704807821671e-95
8.752499999999940883e+00 -3.769610434817722389e-95
8.966249999999945430e+00 4.522090879328923136e-95
9.179999999999949978e+00 1.775510908398539168e-94
9.393749999999940314e+00 3.511730669597467882e-94
9.607499999999944862e+00 5.370064111620857958e-94
9.821249999999949409e+00 6.790185443501287506e-94
1.003499999999993975e+01 6.931189111402674604e-94
1.024874999999994429e+01 4.750839407910246422e-94
1.046249999999994884e+01 -7.835859179807156589e-95
1.067624999999993918e+01 -1.032635648951396455e-93
1.088999999999994373e+01 -2.363504195676859105e-93
1.110374999999994827e+01 -3.897062170765420595e-93
1.131749999999993861e+01 -5.256321932506115161e-93
1.153124999999994316e+01 -5.837880732103022141e-93
1.174499999999994770e+01 -4.849444117036360810e-93
1.195874999999993804e+01 -1.440901047050853895e-93
1.217249999999994259e+01 5.046283377152267553e-93
1.238624999999994714e+01 1.470897586039934861e-92
1.259999999999993747e+01 2.662899110750299091e-92
1.281374999999994202e+01 3.843013999898488905e-92
1.302749999999994657e+01 4.600506535458931857e-92
1.324124999999995111e+01 4.363048444604076818e-92
1.345499999999994145e+01 2.471741503748532116e-92
1.366874999999994600e+01 -1.659274932749697073e-92
1.388249999999995055e+01 -8.290892654965793494e-92
1.409624999999994088e+01 -1.703271054896275729e-91
1.430999999999994543e+01 -2.649843350593024813e-91
1.452374999999994998e+01 -3.404589707651235151e-91
1.473749999999994031e+01 -3.575038142490100362e-91
1.495124999999994486e+01 -2.678844791369084100e-91
1.516499999999994941e+01 -2.399017171421929959e-92
1.537874999999993975e+01 4.048550139697421768e-91
1.559249999999994429e+01 1.010027868038734866e-90
1.580624999999994884e+01 1.718314452443219728e-90
1.601999999999993918e+01 2.370007360200269940e-90
1.623374999999994373e+01 2.710051129569085256e-90
1.644749999999994827e+01 2.404386695989994844e-90
1.666124999999993861e+01 1.093863740851095597e-90
1.687499999999994316e+01 -1.505625193934883797e-90
1.708874999999994770e+01 -5.457294012942308521e-90
1.730249999999993804e+01 -1.042776490408531554e-89
1.751624999999994259e+01 -1.551820305413759373e-89
1.772999999999994714e+01 -1.916215348100657900e-89
1.794374999999993747e+01 -1.916955865406833833e-89
1.815749999999994202e+01 -1.300360213950542803e-89
1.837124999999994657e+01 1.639101353886679563e-90
1.858499999999993690e+01 2.592450419603230628e-89
1.879874999999994145e+01 5.872365155297767186e-89
1.901249999999994600e+01 9.540183090442841757e-89
1.922624999999993634e+01 1.269075207001445585e-88
1.943999999999994088e+01 1.396570284534995260e-88
1.965374999999994543e+01 1.167901246789063671e-88
1.986749999999993577e+01 4.132014719786421820e-89
2.008124999999994031e+01 -9.855210365157353878e-89
2.029499999999994486e+01 -3.022012675647166860e-88
2.050874999999993520e+01 -5.484303657404899365e-88
2.072249999999993975e+01 -7.883900949826417414e-88
2.093624999999994429e+01 -9.425135957906596859e-88
2.114999999999993463e+01 -9.050958645993401976e-88
2.136374999999993918e+01 -5.601265733579072900e-88
2.157749999999994373e+01 1.891878330569607412e-88
2.179124999999993406e+01 1.377484220106648879e-87
2.200499999999993861e+01 2.925543946484181977e-87
2.221874999999994316e+01 4.590272509610416230e-87
2.243249999999993349e+01 5.933051458653141675e-87
2.264624999999993804e+01 6.328240363964991604e-87
2.285999999999994259e+01 5.035175787648653645e-87
2.307374999999993292e+01 1.352325844883182572e-87
2.328749999999993747e+01 -5.141227819011839898e-87
2.350124999999994202e+01 -1.427551282016611235e-86
2.371499999999993236e+01 -2.496219242710156347e-86
2.392874999999993690e+01 -3.493962698933017038e-86
2.414249999999994145e+01 -4.071482864167131597e-86
2.435624999999993179e+01 -3.784491243495677563e-86
2.456999999999993634e+01 -2.168661363920111785e-86
2.478374999999994088e+01 1.131977263905309472e-86
2.499749999999993122e+01 6.188708844141146826e-86
2.521124999999993577e+01 1.258740564276898830e-85
2.542499999999994031e+01 1.924903228938160963e-85
2.563874999999993065e+01 2.433892077018827452e-85
2.585249999999993520e+01 2.534734054087081256e-85
2.606624999999993975e+01 1.942313337900141779e-85
2.627999999999994429e+01 4.016266795883066059e-86
2.649374999999993463e+01 -2.217347253253316061e-85
2.670749999999993918e+01 -5.803804165778848375e-85
2.692124999999994373e+01 -9.891105810308944813e-85
2.713499999999993406e+01 -1.357744275724237704e-84
2.734874999999993861e+01 -1.552749917337079276e-84
2.756249999999994316e+01 -1.410375117355593782e-84
2.777624999999993349e+01 -7.666829548331602720e-85
2.798999999999993804e+01 4.942070397447790465e-85
2.820374999999994259e+01 2.376987898760019398e-84
2.841749999999993292e+01 4.706842849845639334e-84
2.863124999999993747e+01 7.072945295201758266e-84
2.884499999999994202e+01 8.807429630408899376e-84
2.905874999999993236e+01 9.027076429271681207e-84
2.927249999999993690e+01 6.762663168946115799e-84
2.948624999999994145e+01 1.189971253519735179e-84
2.969999999999993179e+01 -8.045043928891990469e-84
2.991374999999993634e+01 -2.044626836292793293e-83
3.012749999999994088e+01 -3.431092648805100746e-83
3.034124999999993122e+01 -4.651364770641603098e-83
3.055499999999993577e+01 -5.257543846068739797e-83
3.076874999999994031e+01 -4.716302541871336956e-83
3.098249999999993065e+01 -2.512369975792856727e-83
3.119624999999993520e+01 1.693310139169019184e-83
3.140999999999993975e+01 7.864717304812976973e-83
3.162374999999993008e+01 1.538485195561195657e-82
3.183749999999993463e+01 2.289769633647188457e-82
3.205124999999993918e+01 2.827049683963111669e-82
3.226499999999992951e+01 2.875557789679800111e-82
3.247874999999993406e+01 2.141882408080231580e-82
3.269249999999993861e+01 3.863940690358717725e-83
3.290624999999992895e+01 -2.478606861947840522e-82
3.311999999999993349e+01 -6.278337563228223498e-82
3.333374999999993804e+01 -1.047685731441513711e-81
3.354749999999992838e+01 -1.412474483316241668e-81
3.376124999999993292e+01 -1.589371056949979881e-81
3.397499999999993747e+01 -1.423676081785630006e-81
3.418874999999992781e+01 -7.698601091413922433e-82
3.440249999999993236e+01 4.627574829582206328e-82
3.461624999999993690e+01 2.254389255617679442e-81
3.482999999999992724e+01 4.419275885134209291e-81
3.504374999999993179e+01 6.565822914299093336e-81
3.525749999999993634e+01 8.092014935373948962e-81
3.547124999999992667e+01 8.236613989398881877e-81
3.568499999999993122e+01 6.202283375054318486e-81
3.589874999999993577e+01 1.355571896646500091e-81
3.611249999999992610e+01 -6.509913724252954005e-81
3.632624999999993065e+01 -1.688563180485535270e-80
3.653999999999993520e+01 -2.830146575329210968e-80
3.675374999999992554e+01 -3.821018698472001426e-80
3.696749999999993008e+01 -4.310479615004724157e-80
3.718124999999993463e+01 -3.896076762206287281e-80
3.739499999999992497e+01 -2.205505114218304281e-80
3.760874999999992951e+01 9.861901804516117391e-81
3.782249999999993406e+01 5.617370525492233826e-80
3.803624999999993861e+01 1.120476495357466764e-79
3.824999999999994316e+01 1.675150532916370377e-79
3.846374999999991928e+01 2.074574170918895100e-79
3.867749999999992383e+01 2.129756782974810550e-79
3.889124999999992838e+01 1.644937919471492263e-79
3.910499999999993292e+01 4.666139762893394550e-80
3.931874999999993747e+01 -1.453315382532035121e-79
3.953249999999994202e+01 -3.989952403616294255e-79
3.974624999999991815e+01 -6.789201362423998053e-79
3.995999999999992269e+01 -9.243876540521528593e-79
4.017374999999992724e+01 -1.052507188531852593e-78
4.038749999999993179e+01 -9.688671099019481670e-79
4.060124999999993634e+01 -5.866918717693681301e-79
4.081499999999994088e+01 1.462679000746056570e-79
4.102874999999991701e+01 1.216335589720790051e-78
4.124249999999992156e+01 2.514047398505873535e-78
4.145624999999992610e+01 3.814513041247412508e-78
4.166999999999993065e+01 4.778330066062363185e-78
4.188374999999993520e+01 4.983116062928604403e-78
4.209749999999993975e+01 3.992658569042366775e-78
4.231124999999991587e+01 1.464246721450220840e-78
4.252499999999992042e+01 -2.715022467089197427e-78
4.273874999999992497e+01 -8.284340942491801230e-78
4.295249999999992951e+01 -1.449160860889795402e-77
4.316624999999993406e+01 -2.004588714419382770e-77
4.337999999999993861e+01 -2.318673170829631953e-77
4.359374999999991473e+01 -2.190964332271439292e-77
4.380749999999991928e+01 -1.436533038946405523e-77
4.402124999999992383e+01 5.861656593311912525e-79
4.423499999999992838e+01 2.273486080243419957e-77
4.444874999999993292e+01 4.991763597024628822e-77
4.466249999999993747e+01 7.762644620986469083e-77
4.487624999999991360e+01 9.903094681771571222e-77
4.508999999999991815e+01 1.056089437299683473e-76
4.530374999999992269e+01 8.851391156536428085e-77
4.551749999999992724e+01 4.068077858632752767e-77
4.573124999999993179e+01 -4.051795134875097054e-77
4.594499999999993634e+01 -1.504839935636461719e-76
4.615874999999991246e+01 -2.751229054174053974e-76
4.637249999999991701e+01 -3.899155580858359597e-76
4.658624999999992156e+01 -4.612004393161556367e-76
4.679999999999992610e+01 -4.503797695386868850e-76
4.701374999999993065e+01 -3.213517733263571988e-76
4.722749999999993520e+01 -5.079276496742755703e-77
4.744124999999993975e+01 3.599851504228135689e-76
4.765499999999991587e+01 8.738647271560698285e-76
4.786874999999992042e+01 1.410579126487653603e-75
4.808249999999992497e+01 1.846809246189179235e-75
4.829624999999992951e+01 2.027126736365360987e-75
4.850999999999993406e+01 1.788017835102202884e-75
4.872374999999993861e+01 9.949587642114119378e-76
4.893749999999991473e+01 -4.107730217042198373e-76
4.915124999999991928e+01 -2.362811499900509086e-75
4.936499999999992383e+01 -4.629106190064505953e-75
4.957874999999992838e+01 -6.794060698197722565e-75
4.979249999999993292e+01 -8.278109400078834732e-75
5.000624999999993747e+01 -8.406727065340871901e-75
5.021999999999991360e+01 -6.533962030102638999e-75
5.043374999999991815e+01 -2.214339772950064067e-75
5.064749999999992269e+01 4.597726059105464029e-75
5.086124999999992724e+01 1.335793331614103470e-74
5.107499999999993179e+01 2.280243421259298124e-74
5.128874999999993634e+01 3.093706472870974091e-74
5.150249999999991246e+01 3.520052934158802932e-74
5.171624999999991701e+01 3.283807043644085859e-74
5.192999999999992156e+01 2.148655819184602425e-74
5.214374999999992610e+01 -7.936012083372608230e-77
5.235749999999993065e+01 -3.115161850950935245e-74
5.257124999999993520e+01 -6.841556416527270292e-74
5.278499999999991132e+01 -1.056157105004690906e-73
5.299874999999991587e+01 -1.337877540782034700e-73
5.321249999999992042e+01 -1.422445155430124915e-73
5.342624999999992497e+01 -1.204013299191601859e-73
5.363999999999992951e+01 -6.036012193467166681e-74
5.385374999999993406e+01 4.004588316572531720e-74
5.406749999999991019e+01 1.742820919171357635e-73
5.428124999999991473e+01 3.249606859534641051e-73
5.449499999999991928e+01 4.633675926378145594e-73
5.470874999999992383e+01 5.514884800178077369e-73
5.492249999999992838e+01 5.471002884373845844e-73
5.513624999999993292e+01 4.120002253824020598e-73
5.534999999999990905e+01 1.227273949370297906e-73
5.556374999999991360e+01 -3.177271147690980500e-73
5.577749999999991815e+01 -8.695816279393349411e-73
5.599124999999992269e+01 -1.450303985865751504e-72
5.620499999999992724e+01 -1.936237858265172813e-72
5.641874999999993179e+01 -2.174547083299298683e-72
5.663249999999990791e+01 -2.006897113963930333e-72
5.684624999999991246e+01 -1.304114886164394176e-72
5.705999999999991701e+01 -8.190585242179610478e-75
5.727374999999992156e+01 1.825197600102754206e-72
5.748749999999992610e+01 3.993317399831159551e-72
5.770124999999993065e+01 6.133603598847300143e-72
5.791499999999990678e+01 7.742676850908282218e-72
5.812874999999991132e+01 8.235463781376444575e-72
5.834249999999991587e+01 7.046745594883837852e-72
5.855624999999992042e+01 3.768600523315140952e-72
5.876999999999992497e+01 -1.693617715265714195e-72
5.898374999999992951e+01 -8.975173153319629793e-72
5.919749999999990564e+01 -1.715294299198943539e-71
5.941124999999991019e+01 -2.473446060390469357e-71
5.962499999999991473e+01 -2.977175217407726279e-71
5.983874999999991928e+01 -3.012253996284598594e-71
6.005249999999992383e+01 -2.385667832040906671e-71
6.026624999999992838e+01 -9.772075897537383174e-72
6.047999999999990450e+01 1.205390186711535439e-71
6.069374999999990905e+01 3.978756536567802593e-71
6.090749999999991360e+01 6.957140091309229161e-71
6.112124999999991815e+01 9.560467761615024999e-71
6.133499999999992269e+01 1.106853113454842676e-70
6.154874999999992724e+01 1.072659351932641020e-70
6.176249999999993179e+01 7.898306152471449862e-71
6.197624999999990791e+01 2.249883868998089693e-71
6.218999999999991246e+01 -6.063257875141543386e-71
6.240374999999991701e+01 -1.624724793894099817e-70
6.261749999999992156e+01 -2.680404341411081193e-70
6.283124999999992610e+01 -3.559393559337421639e-70
6.304499999999993065e+01 -4.005927568906623122e-70
6.325874999999990678e+01 -3.761947668248116879e-70
6.347249999999991132e+01 -2.621418289988849749e-70
6.368624999999991587e+01 -4.931699724728333686e-71
6.389999999999992042e+01 2.538042754770616473e-70
6.411374999999992497e+01 6.165799098076136486e-70
6.432749999999992951e+01 9.846582410683011596e-70
6.454124999999990564e+01 1.282847757504621105e-69
6.475499999999991019e+01 1.423334409398397906e-69
6.496874999999991473e+01 1.319391231023797412e-69
6.518249999999991928e+01 9.036424746126618235e-70
6.539624999999992383e+01 1.486973305994344093e-70
6.560999999999992838e+01 -9.132415506564920757e-70
6.582374999999990450e+01 -2.176104979384458504e-69
6.603749999999990905e+01 -3.455674086911804474e-69
6.625124999999991360e+01 -4.499468182507974307e-69
6.646499999999991815e+01 -5.013535503108892778e-69
6.667874999999992269e+01 -4.706441078902551052e-69
6.689249999999992724e+01 -3.347495751846478784e-69
6.710624999999990337e+01 -8.325907305629697950e-70
6.731999999999990791e+01 2.752534073031416535e-69
6.753374999999991246e+01 7.084447186336722542e-69
6.774749999999991701e+01 1.158356609691757003e-68
6.796124999999992156e+01 1.543790016384380604e-68
6.817499999999992610e+01 1.767802057608238720e-68
6.838874999999990223e+01 1.730577353446559838e-68
6.860249999999990678e+01 1.347042377879963590e-68
6.881624999999991132e+01 5.675646433554808579e-69
6.902999999999991587e+01 -6.009595229971039065e-69
6.924374999999992042e+01 -2.077207846341354707e-68
6.945749999999992497e+01 -3.694851689507217868e-68
6.967124999999990109e+01 -5.203456048931995510e-68
6.988499999999990564e+01 -6.284411779179006264e-68
7.009874999999991019e+01 -6.584106576224554349e-68
7.031249999999991473e+01 -5.764454935631443952e-68
7.052624999999991928e+01 -3.568163860237745181e-68
7.073999999999992383e+01 1.071035012843893452e-69
7.095374999999989996e+01 5.134894914782132282e-68
7.116749999999990450e+01 1.109885475856828505e-67
7.138124999999990905e+01 1.725912413839722119e-67
7.159499999999991360e+01 2.256208517578881037e-67
7.180874999999991815e+01 2.570824309069692344e-67
7.202249999999992269e+01 2.528922427386998469e-67
7.223624999999989882e+01 1.999766001576142168e-67
7.244999999999990337e+01 8.902772445338069606e-68
7.266374999999990791e+01 -8.230081786655744362e-68
7.287749999999991246e+01 -3.061493318357377783e-67
7.309124999999991701e+01 -5.617290272064219025e-67
7.330499999999992156e+01 -8.138501752320384631e-67
7.351874999999989768e+01 -1.013523270010169328e-66
7.373249999999990223e+01 -1.101430439606160448e-66
7.394624999999990678e+01 -1.014868918587504657e-66
7.415999999999991132e+01 -6.983579090935553448e-67
7.437374999999991587e+01 -1.174549286962131929e-67
7.458749999999992042e+01 7.255299088782322004e-67
7.480124999999992497e+01 1.776222477013721953e-66
7.501499999999990109e+01 2.916547419815695636e-66
7.522874999999990564e+01 3.960768656624994721e-66
7.544249999999991019e+01 4.663432576066051195e-66
7.565624999999991473e+01 4.742861684416998245e-66
7.586999999999991928e+01 3.922225847821400253e-66
7.608374999999992383e+01 1.987428889670340057e-66
7.629749999999989996e+01 -1.142831748720183912e-66
7.651124999999990450e+01 -5.344088476563723948e-66
7.672499999999990905e+01 -1.022413340749214070e-65
7.693874999999991360e+01 -1.508970271584809509e-65
7.715249999999991815e+01 -1.896102149748224830e-65
7.736624999999992269e+01 -2.065152671389751996e-65
7.757999999999989882e+01 -1.892367995834860691e-65
7.779374999999990337e+01 -1.272032365423823420e-65
7.800749999999990791e+01 -1.454871187935764814e-66
7.822124999999991246e+01 1.467572433090447941e-65
7.843499999999991701e+01 3.441095778100754129e-65
7.864874999999992156e+01 5.525137172644688928e-65
7.886249999999989768e+01 7.346663786458873515e-65
7.907624999999990223e+01 8.435943531543100494e-65
7.928999999999990678e+01 8.283299566547553489e-65
7.950374999999991132e+01 6.426593707569474861e-65
7.971749999999991587e+01 2.563553944642517362e-65
7.993124999999992042e+01 -3.324399050540506374e-65
8.014499999999989654e+01 -1.085774206348794498e-64
8.035874999999990109e+01 -1.918090281950084144e-64
8.057249999999990564e+01 -2.695068062720636209e-64
8.078624999999991019e+01 -3.241868558682072211e-64
8.099999999999991473e+01 -3.362663841065972900e-64
8.121374999999991928e+01 -2.871739710573242547e-64
8.142749999999989541e+01 -1.634209839678563939e-64
8.164124999999989996e+01 3.882919202122239464e-65
8.185499999999990450e+01 3.094275042031589298e-64
8.206874999999990905e+01 6.210931576385728720e-64
8.228249999999991360e+01 9.285112419791241170e-64
8.249624999999991815e+01 1.170658225977033688e-63
8.270999999999989427e+01 1.277044381689868443e-63
8.292374999999989882e+01 1.178026180350199399e-63
8.313749999999990337e+01 8.185898836078724695e-64
8.335124999999990791e+01 1.741172541181366032e-64
8.356499999999991246e+01 -7.342533122115647941e-64
8.377874999999991701e+01 -1.827785748224491961e-63
8.399249999999989313e+01 -2.965300782309383200e-63
8.420624999999989768e+01 -3.948600789264843114e-63
8.441999999999990223e+01 -4.540537290975905659e-63
8.463374999999990678e+01 -4.496440940128662897e-63
8.484749999999991132e+01 -3.607316520247473946e-63
8.506124999999991587e+01 -1.750464882922465530e-63
8.527499999999989200e+01 1.059572325507323859e-63
8.548874999999989654e+01 4.629118338840584547e-63
8.570249999999990109e+01 8.563081292511201923e-63
8.591624999999990564e+01 1.227242152614415321e-62
8.612999999999991019e+01 1.501905718609675476e-62
8.634374999999991473e+01 1.600133013924959899e-62
8.655749999999989086e+01 1.447671225242771314e-62
8.677124999999989541e+01 9.910792467871396965e-63
8.698499999999989996e+01 2.133825916176602331e-63
8.719874999999990450e+01 -8.520373255243073518e-63
8.741249999999990905e+01 -2.112215923687469729e-62
8.762624999999991360e+01 -3.412900171031877800e-62
8.783999999999991815e+01 -4.546684766663797467e-62
8.805374999999989427e+01 -5.272241212754231198e-62
8.826749999999989882e+01 -5.344360994117382077e-62
8.848124999999990337e+01 -4.552702489414611618e-62
8.869499999999990791e+01 -2.765243421440157728e-62
8.890874999999991246e+01 2.920325216790626604e-64
8.912249999999991701e+01 3.686142475759748508e-62
8.933624999999989313e+01 7.885224379811231751e-62
8.954999999999989768e+01 1.213104128850141770e-61
8.976374999999990223e+01 1.577947497243380274e-61
8.997749999999990678e+01 1.809158900223912645e-61
9.019124999999991132e+01 1.831388248913037819e-61
9.040499999999991587e+01 1.578032119588716817e-61
9.061874999999989200e+01 1.002832858113653183e-61
9.083249999999989654e+01 9.181726936136556756e-63
9.104624999999990109e+01 -1.125689623796636066e-61
9.125999999999990564e+01 -2.568381216414726410e-61
9.147374999999991019e+01 -4.098109098412819034e-61
9.168749999999991473e+01 -5.520389294813419380e-61
9.190124999999989086e+01 -6.591835478086928404e-61
9.211499999999989541e+01 -7.036032979101624659e-61
9.232874999999989996e+01 -6.569175432620363894e-61
9.254249999999990450e+01 -4.936309883674727027e-61
9.275624999999990905e+01 -1.958092936807047275e-61
9.296999999999991360e+01 2.413639481510523755e-61
9.318374999999988972e+01 8.035573404150915799e-61
9.339749999999989427e+01 1.451513234105549591e-60
9.361124999999989882e+01 2.116612293970164743e-60
9.382499999999990337e+01 2.699233616145728536e-60
9.403874999999990791e+01 3.071624501618230996e-60
9.425249999999991246e+01 3.087032415881385713e-60
9.446624999999988859e+01 2.596527725834977058e-60
9.467999999999989313e+01 1.474131982929016837e-60
9.489374999999989768e+01 -3.505150184869433470e-61
9.510749999999990223e+01 -2.854649138514276974e-60
9.532124999999990678e+01 -5.885067356036020710e-60
9.553499999999991132e+01 -9.128442849818714651e-60
9.574874999999988745e+01 -1.209869716504510303e-59
9.596249999999989200e+01 -1.415179303975089778e-59
9.617624999999989654e+01 -1.453749771112261046e-59
9.638999999999990109e+01 -1.249447368978847458e-59
9.660374999999990564e+01 -7.389089777306872548e-60
9.681749999999991019e+01 1.110356034475356415e-60
9.703124999999988631e+01 1.284311062121777105e-59
9.724499999999989086e+01 2.697978624067200833e-59
9.745874999999989541e+01 4.190136607823605652e-59
9.767249999999989996e+01 5.518038859877203849e-59
9.788624999999990450e+01 6.371047873210992929e-59
9.809999999999990905e+01 6.401988762016572955e-59
9.831374999999988518e+01 5.278272662924801480e-59
9.852749999999988972e+01 2.750798897999360084e-59
9.874124999999989427e+01 -1.265658600151291036e-59
9.895499999999989882e+01 -6.611629403140759771e-59
9.916874999999990337e+01 -1.281716591273354130e-58
9.938249999999990791e+01 -1.906967241189522577e-58
9.959624999999988404e+01 -2.423454207750759927e-58
9.980999999999988859e+01 -2.694490809379014228e-58
1.000237499999998931e+02 -2.576964456098475383e-58
1.002374999999998977e+02 -1.945711308424919188e-58
1.004512499999999022e+02 -7.236660598755894523e-59
1.006649999999999068e+02 1.085786701836832528e-58
1.008787499999998829e+02 3.369570381453440680e-58
1.010924999999998875e+02 5.885445933149077929e-58
1.013062499999998920e+02 8.259542786623094972e-58
1.015199999999998965e+02 1.000751528564143281e-57
1.017337499999999011e+02 1.058387063423148431e-57
1.019474999999999056e+02 9.460341037692605739e-58
1.021612499999999102e+02 6.229043320203949634e-58
1.023749999999998863e+02 7.200472892406296143e-59
1.025887499999998909e+02 -6.883330684668966493e-58
1.028024999999998954e+02 -1.595356057242968792e-57
1.030162499999999000e+02 -2.537741986262502517e-57
1.032299999999999045e+02 -3.358867449597708482e-57
1.034437499999999091e+02 -3.869438154199136715e-57
1.036574999999998852e+02 -3.870373351996855135e-57
1.038712499999998897e+02 -3.185266039459155945e-57
1.040849999999998943e+02 -1.699771710246659943e-57
1.042987499999998988e+02 5.968596539060903114e-58
1.045124999999999034e+02 3.574866899282425740e-57
1.047262499999999079e+02 6.939831735148904618e-57
1.049399999999998840e+02 1.022984101876617888e-56
1.051537499999998886e+02 1.284146794806680935e-56
1.053674999999998931e+02 1.408938183163373441e-56
1.055812499999998977e+02 1.329997280732766443e-56
1.057949999999999022e+02 9.933476655269763311e-57
1.060087499999999068e+02 3.722288956557506896e-57
1.062224999999998829e+02 -5.193610648094689229e-57
1.064362499999998875e+02 -1.615874372327363762e-56
1.066499999999998920e+02 -2.794930760822252635e-56
1.068637499999998965e+02 -3.880208717125263955e-56
1.070774999999999011e+02 -4.654589725227636056e-56
1.072912499999999056e+02 -4.884508638336815675e-56
1.075049999999998818e+02 -4.354826461395617501e-56
1.077187499999998863e+02 -2.911521952360869269e-56
1.079324999999998909e+02 -5.073264870876757517e-57
1.081462499999998954e+02 2.756571991496037010e-56
1.083599999999999000e+02 6.601063450270840449e-56
1.085737499999999045e+02 1.056065284255847676e-55
1.087874999999998806e+02 1.400387690744990935e-55
1.090012499999998852e+02 1.618799867924411068e-55
1.092149999999998897e+02 1.634925228359068243e-55
1.094287499999998943e+02 1.382434338397016514e-55
1.096424999999998988e+02 8.192404588119411249e-56
1.098562499999999034e+02 -5.800364220712979256e-57
1.100699999999998795e+02 -1.201423825458076728e-55
1.102837499999998840e+02 -2.504132745763575376e-55
1.104974999999998886e+02 -3.799827945079093700e-55
1.107112499999998931e+02 -4.872069355604939150e-55
1.109249999999998977e+02 -5.474620414973124159e-55
1.111387499999999022e+02 -5.362840102808572968e-55
1.113524999999998784e+02 -4.334308028473949226e-55
1.115662499999998829e+02 -2.274823933247534127e-55
1.117799999999998875e+02 7.960935204610759671e-56
1.119937499999998920e+02 4.687745498419125495e-55
1.122074999999998965e+02 9.017304007291572229e-55
1.124212499999999011e+02 1.321370365512311228e-54
1.126349999999998772e+02 1.655317962195366599e-54
1.128487499999998818e+02 1.823019771909891135e-54
1.130624999999998863e+02 1.746296239075414353e-54
1.132762499999998909e+02 1.362691077704366822e-54
1.134899999999998954e+02 6.403162026994761997e-55
1.137037499999999000e+02 -4.077385983055324864e-55
1.139174999999998761e+02 -1.711869617666929811e-54
1.141312499999998806e+02 -3.140006903083234269e-54
1.143449999999998852e+02 -4.499878652540204915e-54
1.145587499999998897e+02 -5.551607540542116022e-54
1.147724999999998943e+02 -6.031745605079625502e-54
1.149862499999998988e+02 -5.688366877878167552e-54
1.151999999999998749e+02 -4.324961411716021087e-54
1.154137499999998795e+02 -1.848790026308450999e-54
1.156274999999998840e+02 1.682667473306687071e-54
1.158412499999998886e+02 6.025168019300865849e-54
1.160549999999998931e+02 1.072991664872968608e-53
1.162687499999998977e+02 1.515309066332067882e-53
1.164824999999999022e+02 1.849948494002934154e-53
1.166962499999998784e+02 1.990371543952381285e-53
1.169099999999998829e+02 1.854746246807746936e-53
1.171237499999998875e+02 1.380499903989634505e-53
1.173374999999998920e+02 5.402335837113773425e-54
1.175512499999998965e+02 -6.431377315984301170e-54
1.177649999999999011e+02 -2.084687771512311522e-53
1.179787499999998772e+02 -3.632160218649989555e-53
1.181924999999998818e+02 -5.069841269026091659e-53
1.184062499999998863e+02 -6.133820943328890877e-53
1.186199999999998909e+02 -6.539679687269974042e-53
1.188337499999998954e+02 -6.021948841414076929e-53
1.190474999999999000e+02 -4.382588867185998195e-53
1.192612499999998761e+02 -1.543420772510301269e-53
1.194749999999998806e+02 2.404752985649845407e-53
1.196887499999998852e+02 7.165298693441048337e-53
1.199024999999998897e+02 1.222089438671725793e-52
1.201162499999998943e+02 1.684979806919912368e-52
1.203299999999998988e+02 2.018011209419853086e-52
1.205437499999998749e+02 2.128483504496824221e-52
1.207574999999998795e+02 1.931470332874318134e-52
1.209712499999998840e+02 1.365875082057354830e-52
1.211849999999998886e+02 4.114924731392022549e-53
1.213987499999998931e+02 -8.953919654611406631e-53
1.216124999999998977e+02 -2.450843223745884181e-52
1.218262499999998738e+02 -4.079715555237491097e-52
1.220399999999998784e+02 -5.542559375353115568e-52
1.222537499999998829e+02 -6.555023525100058485e-52
1.224674999999998875e+02 -6.820349068699156712e-52
1.226812499999998920e+02 -6.073590721381294472e-52
1.228949999999998965e+02 -4.133876827171871558e-52
1.231087499999998727e+02 -9.586024121266299065e-53
1.233224999999998772e+02 3.308686482511064240e-52
1.235362499999998818e+02 8.306379210595251017e-52
1.237499999999998863e+02 1.344877641219705901e-51
1.239637499999998909e+02 1.795457966388030191e-51
1.241774999999998954e+02 2.091542795052889131e-51
1.243912499999998715e+02 2.140510544882274634e-51
1.246049999999998761e+02 1.862359329251308365e-51
1.248187499999998806e+02 1.206275267507752260e-51
1.250324999999998852e+02 1.673050073326251216e-52
1.252462499999998897e+02 -1.199541731583862902e-51
1.254599999999998943e+02 -2.770790100089145727e-51
1.256737499999998704e+02 -4.354593091738206924e-51
1.258874999999998749e+02 -5.701878763857647440e-51
1.261012499999998795e+02 -6.529920662216123593e-51
1.263149999999998840e+02 -6.558075024652518350e-51
1.265287499999998886e+02 -5.553381273944331567e-51
1.267424999999998931e+02 -3.381468432232975689e-51
1.269562499999998693e+02 -5.605897429842965674e-53