2.024999999999579359e-01 1.226233269655396081e-142
4.162499999999482725e-01 -5.709036652477754071e-143
6.299999999999528200e-01 -4.256752455745646373e-142
8.437499999999573674e-01 -1.029929639319421861e-141
1.057499999999947704e+00 -1.858029621179837845e-141
1.271249999999952252e+00 -2.775642406685108056e-141
1.484999999999956799e+00 -3.445559275979202056e-141
1.698749999999947136e+00 -3.250044301898385835e-141
1.912499999999951683e+00 -1.256332672102048052e-141
2.126249999999956231e+00 3.707498792612614403e-141
2.339999999999946567e+00 1.277302204085802803e-140
2.553749999999951115e+00 2.644305000502702665e-140
2.767499999999955662e+00 4.361330260110281167e-140
2.981249999999945999e+00 6.021438457922885500e-140
3.194999999999950546e+00 6.767742814706381170e-140
3.408749999999955094e+00 5.174850823638093684e-140
3.622499999999945430e+00 -7.376208813656399520e-141
3.836249999999949978e+00 -1.321184647765903843e-139
4.049999999999954525e+00 -3.399262461968805032e-139
4.263749999999944862e+00 -6.292132461749853442e-139
4.477499999999949409e+00 -9.580023981693422212e-139
4.691249999999953957e+00 -1.216968031427006092e-138
4.904999999999944293e+00 -1.203212721926339073e-138
5.118749999999948841e+00 -6.081086989305416760e-139
5.332499999999953388e+00 9.587556683905063485e-139
5.546249999999943725e+00 3.879261443468865149e-138
5.759999999999948272e+00 8.336606765514921081e-138
5.973749999999952820e+00 1.400099184441570573e-137
6.187499999999943157e+00 1.959813964345613161e-137
6.401249999999947704e+00 2.243155049557406391e-137
6.614999999999952252e+00 1.803243455910055016e-137
6.828749999999942588e+00 2.486056645177063397e-139
7.042499999999947136e+00 -3.777171529607250616e-137
7.256249999999951683e+00 -1.011544279766759193e-136
7.469999999999942020e+00 -1.889532166825210515e-136
7.683749999999946567e+00 -2.877753110459549778e-136
7.897499999999951115e+00 -3.641131365704187630e-136
8.111249999999941451e+00 -3.575478861850942614e-136
8.324999999999945999e+00 -1.789906568717214438e-136
8.538749999999950546e+00 2.796286317931665113e-136
8.752499999999940883e+00 1.116121042231154726e-135
8.966249999999945430e+00 2.361412277993432754e-135
9.179999999999949978e+00 3.891950102375627229e-135
9.393749999999940314e+00 5.318148300684294912e-135
9.607499999999944862e+00 5.874670953030115231e-135
9.821249999999949409e+00 4.365431255977871226e-135
1.003499999999993975e+01 -7.522723795547352541e-136
1.024874999999994429e+01 -1.103399500926675906e-134
1.046249999999994884e+01 -2.735170628397567427e-134
1.067624999999993918e+01 -4.876871599710406808e-134
1.088999999999994373e+01 -7.104739793396753642e-134
1.110374999999994827e+01 -8.508435048728018026e-134
1.131749999999993861e+01 -7.590979890424084267e-134
1.153124999999994316e+01 -2.329522564793733610e-134
1.174499999999994770e+01 9.463402977708695417e-134
1.195874999999993804e+01 2.933036834887416345e-133
1.217249999999994259e+01 5.681426906713320115e-133
1.238624999999994714e+01 8.760778281024152205e-133
1.259999999999993747e+01 1.115298798133474280e-132
1.281374999999994202e+01 1.110569487793618267e-132
1.302749999999994657e+01 6.162224096053922554e-133
1.324124999999995111e+01 -6.467194732653106809e-133
1.345499999999994145e+01 -2.901575953851510511e-132
1.366874999999994600e+01 -6.162814266429097426e-132
1.388249999999995055e+01 -1.002232353984852001e-131
1.409624999999994088e+01 -1.340909783547168407e-131
1.430999999999994543e+01 -1.440111854731757092e-131
1.452374999999994998e+01 -1.022212315299537750e-131
1.473749999999994031e+01 2.396026999661984764e-132
1.495124999999994486e+01 2.628914111111446200e-131
1.516499999999994941e+01 6.223317884415130671e-131
1.537874999999993975e+01 1.066399491609971412e-130
1.559249999999994429e+01 1.489180697606185672e-130
1.580624999999994884e+01 1.693067280444946316e-130
1.601999999999993918e+01 1.385453747397794460e-130
1.623374999999994373e+01 2.123399960622131820e-131
1.644749999999994827e+01 -2.151027292895319703e-130
1.666124999999993861e+01 -5.837815065377432718e-130
1.687499999999994316e+01 -1.055756653296911630e-129
1.708874999999994770e+01 -1.532743755116975991e-129
1.730249999999993804e+01 -1.824485426333198675e-129
1.751624999999994259e+01 -1.643294115869324525e-129
1.772999999999994714e+01 -6.336251594947930294e-130
1.794374999999993747e+01 1.544192349933936612e-129
1.815749999999994202e+01 5.062235545947746142e-129
1.837124999999994657e+01 9.707068290404311337e-129
1.858499999999993690e+01 1.462591803226712655e-128
1.879874999999994145e+01 1.810810066939385136e-128
1.901249999999994600e+01 1.751999010374923478e-128
1.922624999999993634e+01 9.551471821500014505e-129
1.943999999999994088e+01 -9.058443524825757737e-129
1.965374999999994543e+01 -4.019843564130488044e-128
1.986749999999993577e+01 -8.248350400171351582e-128
2.008124999999994031e+01 -1.290394726834569431e-127
2.029499999999994486e+01 -1.655795644429388574e-127
2.050874999999993520e+01 -1.697627594033722206e-127
2.072249999999993975e+01 -1.131305818613554942e-127
2.093624999999994429e+01 3.303319638308777642e-128
2.114999999999993463e+01 2.870124105635594372e-127
2.136374999999993918e+01 6.413656771906791393e-127
2.157749999999994373e+01 1.045199455518149133e-126
2.179124999999993406e+01 1.388797676952203542e-126
2.200499999999993861e+01 1.498216669828664929e-126
2.221874999999994316e+01 1.149535594420088499e-126
2.243249999999993349e+01 1.124436539878486263e-127
2.264624999999993804e+01 -1.770817582080086744e-126
2.285999999999994259e+01 -4.473775749481137079e-126
2.307374999999993292e+01 -7.657928703207994278e-126
2.328749999999993747e+01 -1.056341271246464943e-125
2.350124999999994202e+01 -1.197077904998486907e-125
2.371499999999993236e+01 -1.029796095355273777e-125
2.392874999999993690e+01 -3.892456557818972016e-126
2.414249999999994145e+01 8.449967499356414964e-126
2.435624999999993179e+01 2.676822086106123403e-125
2.456999999999993634e+01 4.913740433420317131e-125
2.478374999999994088e+01 7.101024749215064346e-125
2.499749999999993122e+01 8.501138231600295176e-125
2.521124999999993577e+01 8.153388112868688879e-125
2.542499999999994031e+01 5.042097451966772881e-125
2.563874999999993065e+01 -1.619188845451247734e-125
2.585249999999993520e+01 -1.201548145577390319e-124
2.606624999999993975e+01 -2.534350491601071799e-124
2.627999999999994429e+01 -3.952683078143732091e-124
2.649374999999993463e+01 -5.117195743383945289e-124
2.670749999999993918e+01 -5.588451616024834213e-124
2.692124999999994373e+01 -4.898675473082601971e-124
2.713499999999993406e+01 -2.654185782451892396e-124
2.734874999999993861e+01 1.357300348440874638e-124
2.756249999999994316e+01 7.092917379407949726e-124
2.777624999999993349e+01 1.425209853899850622e-123
2.798999999999993804e+01 2.235845229839571942e-123
2.820374999999994259e+01 3.088548604578018628e-123
2.841749999999993292e+01 3.930813161107158255e-123
2.863124999999993747e+01 4.688566364638072190e-123
2.884499999999994202e+01 5.195445604001083986e-123
2.905874999999993236e+01 5.059892618051022080e-123
2.927249999999993690e+01 3.484640534224140451e-123
2.948624999999994145e+01 -8.964726416619686829e-124
2.969999999999993179e+01 -1.003077697719350799e-122
2.991374999999993634e+01 -2.610576813344809538e-122
3.012749999999994088e+01 -5.061969420850885549e-122
3.034124999999993122e+01 -8.268514134072780821e-122
3.055499999999993577e+01 -1.165937726624668871e-121
3.076874999999994031e+01 -1.390738227988926274e-121
3.098249999999993065e+01 -1.272691017323132276e-121
3.119624999999993520e+01 -4.916266162305052321e-122
3.140999999999993975e+01 1.312707527612863990e-121
3.162374999999993008e+01 4.418533599715928553e-121
3.183749999999993463e+01 8.815696843523399722e-121
3.205124999999993918e+01 1.392615972595875165e-120
3.226499999999992951e+01 1.830493191032199118e-120
3.247874999999993406e+01 1.943279410008589768e-120
3.269249999999993861e+01 1.377383866993599859e-120
3.290624999999992895e+01 -2.686395103173301202e-121
3.311999999999993349e+01 -3.321698332088528878e-120
3.333374999999993804e+01 -7.833198337851345130e-120
3.354749999999992838e+01 -1.331323901175679079e-119
3.376124999999993292e+01 -1.845200250589354526e-119
3.397499999999993747e+01 -2.092988007128883688e-119
3.418874999999992781e+01 -1.746789026732275106e-119
3.440249999999993236e+01 -4.300799011124283710e-120
3.461624999999993690e+01 2.176090236413134383e-119
3.482999999999992724e+01 6.160915977803523282e-119
3.504374999999993179e+01 1.115858400610171463e-118
3.525749999999993634e+01 1.611396645182848635e-118
3.547124999999992667e+01 1.912215784898235551e-118
3.568499999999993122e+01 1.746255424836754823e-118
3.589874999999993577e+01 7.969518507461658324e-119
3.611249999999992610e+01 -1.213438903231146472e-118
3.632624999999993065e+01 -4.389292482089811189e-118
3.653999999999993520e+01 -8.486266933855985443e-118
3.675374999999992554e+01 -1.272887437603481004e-117
3.696749999999993008e+01 -1.568317405186509585e-117
3.718124999999993463e+01 -1.527375277636775510e-117
3.739499999999992497e+01 -9.048487417341831075e-118
3.760874999999992951e+01 5.218419865255902257e-118
3.782249999999993406e+01 2.855044639763063383e-117
3.803624999999993861e+01 5.949483350352497573e-117
3.824999999999994316e+01 9.278901050819653952e-117
3.846374999999991928e+01 1.184021777722478241e-116
3.867749999999992383e+01 1.215700558935249523e-116
3.889124999999992838e+01 8.453526608965765150e-117
3.910499999999993292e+01 -9.385723609639463827e-118
3.931874999999993747e+01 -1.691655117070497086e-116
3.953249999999994202e+01 -3.873468603221453629e-116
3.974624999999991815e+01 -6.308082609801729825e-116
3.995999999999992269e+01 -8.338680624188068305e-116
4.017374999999992724e+01 -8.977746700665356478e-116
4.038749999999993179e+01 -7.012481841169698391e-116
4.060124999999993634e+01 -1.261698535540414770e-116
4.081499999999994088e+01 8.998578565865444373e-116
4.102874999999991701e+01 2.346951120644919463e-115
4.124249999999992156e+01 4.022001710608460302e-115
4.145624999999992610e+01 5.521020752024144154e-115
4.166999999999993065e+01 6.219938241006901572e-115
4.188374999999993520e+01 5.333064196499039996e-115
4.209749999999993975e+01 2.065325151337621531e-115
4.231124999999991587e+01 -4.129517244256819130e-115
4.252499999999992042e+01 -1.319966085846519511e-114
4.273874999999992497e+01 -2.411022767606001619e-114
4.295249999999992951e+01 -3.452581567799848013e-114
4.316624999999993406e+01 -4.070973263828067050e-114
4.337999999999993861e+01 -3.781539439364712818e-114
4.359374999999991473e+01 -2.073139135268052231e-114
4.380749999999991928e+01 1.443394261182969646e-114
4.402124999999992383e+01 6.829476600834316958e-114
4.423499999999992838e+01 1.358510251859765224e-113
4.444874999999993292e+01 2.044452674731776593e-113
4.466249999999993747e+01 2.528561823115204489e-113
4.487624999999991360e+01 2.525440755281650808e-113
4.508999999999991815e+01 1.720201942651541689e-113
4.530374999999992269e+01 -1.506699841505338815e-114
4.551749999999992724e+01 -3.183381003944424500e-113
4.573124999999993179e+01 -7.170264820929349063e-113
4.594499999999993634e+01 -1.147251337440720839e-112
4.615874999999991246e+01 -1.494778497503346183e-112
4.637249999999991701e+01 -1.598938080961029078e-112
4.658624999999992156e+01 -1.273401315307042022e-112
4.679999999999992610e+01 -3.478109910843797407e-113
4.701374999999993065e+01 1.269716701436625662e-112
4.722749999999993520e+01 3.515596677355222306e-112
4.744124999999993975e+01 6.093980748815739727e-112
4.765499999999991587e+01 8.423723213950541728e-112
4.786874999999992042e+01 9.639718157354452162e-112
4.808249999999992497e+01 8.681256827778700183e-112
4.829624999999992951e+01 4.493475786783080666e-112
4.850999999999993406e+01 -3.650370666874834353e-112
4.872374999999993861e+01 -1.572967453327244453e-111
4.893749999999991473e+01 -3.052743358406777433e-111
4.915124999999991928e+01 -4.526764485990423167e-111
4.936499999999992383e+01 -5.549913478788813386e-111
4.957874999999992838e+01 -5.540824140406512037e-111
4.979249999999993292e+01 -3.872465505635702333e-111
5.000624999999993747e+01 -3.075358652954112383e-113
5.021999999999991360e+01 6.164944762849591713e-111
5.043374999999991815e+01 1.430739053797219066e-110
5.064749999999992269e+01 2.316769397047963761e-110
5.086124999999992724e+01 3.056313426393263521e-110
5.107499999999993179e+01 3.342596085204227039e-110
5.128874999999993634e+01 2.817297256186400463e-110
5.150249999999991246e+01 1.144731153485373206e-110
5.171624999999991701e+01 -1.876202350031752488e-110
5.192999999999992156e+01 -6.172410716133585074e-110
5.214374999999992610e+01 -1.125353137860433887e-109
5.235749999999993065e+01 -1.610499079264634854e-109
5.257124999999993520e+01 -1.916992294657698229e-109
5.278499999999991132e+01 -1.847831274340244789e-109
5.299874999999991587e+01 -1.197380630880317737e-109
5.321249999999992042e+01 1.938667201740351579e-110
5.342624999999992497e+01 2.365166493803043700e-109
5.363999999999992951e+01 5.152018634352868050e-109
5.385374999999993406e+01 8.111970073682969934e-109
5.406749999999991019e+01 1.048690847825180518e-108
5.428124999999991473e+01 1.123470851564939632e-108
5.449499999999991928e+01 9.162598345793590573e-109
5.470874999999992383e+01 3.184372150193718537e-109
5.492249999999992838e+01 -7.299300133784464859e-109
5.513624999999993292e+01 -2.193464564431994435e-108
5.534999999999990905e+01 -3.894730759772140010e-108
5.556374999999991360e+01 -5.480953335598794270e-108
5.577749999999991815e+01 -6.422018408330053758e-108
5.599124999999992269e+01 -6.059101620289363205e-108
5.620499999999992724e+01 -3.720026525625608224e-108
5.641874999999993179e+01 1.092481308998072878e-108
5.663249999999990791e+01 8.451214162383436570e-108
5.684624999999991246e+01 1.773013005778124003e-107
5.705999999999991701e+01 2.737097995690616235e-107
5.727374999999992156e+01 3.478395030950818373e-107
5.748749999999992610e+01 3.649147935108203057e-107
5.770124999999993065e+01 2.861787270280341254e-107
5.791499999999990678e+01 7.786512984627681363e-108
5.812874999999991132e+01 -2.759706124037708865e-107
5.834249999999991587e+01 -7.582480439332408623e-107
5.855624999999992042e+01 -1.304354671339351449e-106
5.876999999999992497e+01 -1.793018615009487051e-106
5.898374999999992951e+01 -2.048425853663501876e-106
5.919749999999990564e+01 -1.859588803406247372e-106
5.941124999999991019e+01 -1.021416615364976405e-106
5.962499999999991473e+01 6.018565606448215534e-107
5.983874999999991928e+01 2.996450237819121115e-106
6.005249999999992383e+01 5.915811325585261653e-106
6.026624999999992838e+01 8.817123371069004749e-106
6.047999999999990450e+01 1.084773557475073239e-105
6.069374999999990905e+01 1.091453532809269170e-105
6.090749999999991360e+01 7.863995319941170603e-106
6.112124999999991815e+01 7.840468372814439901e-107
6.133499999999992269e+01 -1.059055476776530990e-105
6.154874999999992724e+01 -2.542880786591204098e-105
6.176249999999993179e+01 -4.141664018624482561e-105
6.197624999999990791e+01 -5.458218393578620178e-105
6.218999999999991246e+01 -5.950590531430990572e-105
6.240374999999991701e+01 -5.007387673059794796e-105
6.261749999999992156e+01 -2.086300706190158080e-105
6.283124999999992610e+01 3.088824712912061410e-105
6.304499999999993065e+01 1.029687057912790324e-104
6.325874999999990678e+01 1.860268213788785747e-104
6.347249999999991132e+01 2.622622472595080583e-104
6.368624999999991587e+01 3.058440982409268762e-104
6.389999999999992042e+01 2.859053821152934474e-104
6.411374999999992497e+01 1.726849719587349837e-104
6.432749999999992951e+01 -5.321385371822482434e-105
6.454124999999990564e+01 -3.894100772085885173e-104
6.475499999999991019e+01 -8.003073593008117769e-104
6.496874999999991473e+01 -1.208958125767945853e-103
6.518249999999991928e+01 -1.496440063101204904e-103
6.539624999999992383e+01 -1.513096765940430438e-103
6.560999999999992838e+01 -1.104936709817123960e-103
6.582374999999990450e+01 -1.558748063739263658e-104
6.603749999999990905e+01 1.357753824399837114e-103
6.625124999999991360e+01 3.309536580929470298e-103
6.646499999999991815e+01 5.377260267060209010e-103
6.667874999999992269e+01 7.029007678958253991e-103
6.689249999999992724e+01 7.562586766611157346e-103
6.710624999999990337e+01 6.216026234710037650e-103
6.731999999999990791e+01 2.355827059408974329e-103
6.753374999999991246e+01 -4.269394150632730492e-103
6.774749999999991701e+01 -1.324809515181931233e-102
6.796124999999992156e+01 -2.326486678317885431e-102
6.817499999999992610e+01 -3.199132078566739794e-102
6.838874999999990223e+01 -3.621238006577699784e-102
6.860249999999990678e+01 -3.227918033778116844e-102
6.881624999999991132e+01 -1.693400355960059343e-102
6.902999999999991587e+01 1.153133973302015879e-102
6.924374999999992042e+01 5.194067354994475962e-102
6.945749999999992497e+01 9.901601388143611318e-102
6.967124999999990109e+01 1.426966142525313529e-101
6.988499999999990564e+01 1.684842438685332016e-101
7.009874999999991019e+01 1.592701563926743497e-101
7.031249999999991473e+01 9.891303793895992698e-102
7.052624999999991928e+01 -2.252878625711850193e-102
7.073999999999992383e+01 -2.025439385113148155e-101
7.095374999999989996e+01 -4.201685497419091173e-101
7.116749999999990450e+01 -6.321334294444193865e-101
7.138124999999990905e+01 -7.734492508673393984e-101
7.159499999999991360e+01 -7.646659925721091616e-101
7.180874999999991815e+01 -5.273036573283164271e-101
7.202249999999992269e+01 -7.373006515625618785e-103
7.223624999999989882e+01 7.955062906213946656e-101
7.244999999999990337e+01 1.798874659173060583e-100
7.266374999999990791e+01 2.816587288591928195e-100
7.287749999999991246e+01 3.557021098925483990e-100
7.309124999999991701e+01 3.651231260108903546e-100
7.330499999999992156e+01 2.719128703620912457e-100
7.351874999999989768e+01 4.750320649815688315e-101
7.373249999999990223e+01 -3.136819198204539819e-100
7.394624999999990678e+01 -7.800083621838433284e-100
7.415999999999991132e+01 -1.271540777683099971e-99
7.437374999999991587e+01 -1.657029813325871296e-99
7.458749999999992042e+01 -1.764275032914393133e-99
7.480124999999992497e+01 -1.408156031920486116e-99
7.501499999999990109e+01 -4.378245302996479769e-100
7.522874999999990564e+01 1.200208028211473734e-99
7.544249999999991019e+01 3.392756898853094022e-99
7.565624999999991473e+01 5.801186701393596635e-99
7.586999999999991928e+01 7.836039774233662150e-99
7.608374999999992383e+01 8.690764394105160962e-99
7.629749999999989996e+01 7.457182404883313230e-99
7.651124999999990450e+01 3.334087709367189393e-99
7.672499999999990905e+01 -4.080290794377702049e-99
7.693874999999991360e+01 -1.445047492455674645e-98
7.715249999999991815e+01 -2.639319845348481067e-98
7.736624999999992269e+01 -3.729862806838562781e-98
7.757999999999989882e+01 -4.340710052084369296e-98
7.779374999999990337e+01 -4.025949814921196438e-98
7.800749999999990791e+01 -2.359695597765660621e-98
7.822124999999991246e+01 9.301482203313719783e-99
7.843499999999991701e+01 5.798579027864869308e-98
7.864874999999992156e+01 1.172108631975522862e-97
7.886249999999989768e+01 1.757891372459465948e-97
7.907624999999990223e+01 2.165071210748538195e-97
7.928999999999990678e+01 2.177111955255381952e-97
7.950374999999991132e+01 1.570251776838254716e-97
7.971749999999991587e+01 1.731167655159164098e-98
7.993124999999992042e+01 -2.055821620405564029e-97
8.014499999999989654e+01 -4.945049914279121804e-97
8.035874999999990109e+01 -8.041352353165772040e-97
8.057249999999990564e+01 -1.058286575034784105e-96
8.078624999999991019e+01 -1.154405969390276280e-96
8.099999999999991473e+01 -9.779094117233896747e-97
8.121374999999991928e+01 -4.276870093278978893e-97
8.142749999999989541e+01 5.482793637889392514e-97
8.164124999999989996e+01 1.911618191018320943e-96
8.185499999999990450e+01 3.494979047124015693e-96
8.206874999999990905e+01 4.978296140553134365e-96
8.228249999999991360e+01 5.894462136151333900e-96
8.249624999999991815e+01 5.678664726256445264e-96
8.270999999999989427e+01 3.771256790708571700e-96
8.292374999999989882e+01 -2.253870081141398151e-97
8.313749999999990337e+01 -6.350118558504999707e-96
8.335124999999990791e+01 -1.407887057185800193e-95
8.356499999999991246e+01 -2.216491702861844886e-95
8.377874999999991701e+01 -2.859074895913795327e-95
8.399249999999989313e+01 -3.070406313806294820e-95
8.420624999999989768e+01 -2.559877859023714701e-95
8.441999999999990223e+01 -1.076782448237783442e-95
8.463374999999990678e+01 1.500492119371911617e-95
8.484749999999991132e+01 5.062789146077100714e-95
8.506124999999991587e+01 9.176841274230419849e-95
8.527499999999989200e+01 1.302976361288166797e-94
8.548874999999989654e+01 1.544619790625464645e-94
8.570249999999990109e+01 1.501168156490194660e-94
8.591624999999990564e+01 1.032494559347251555e-94
8.612999999999991019e+01 3.792593982755457127e-96
8.634374999999991473e+01 -1.496140561421743777e-94
8.655749999999989086e+01 -3.446866437221925882e-94
8.677124999999989541e+01 -5.516051784368922225e-94
8.698499999999989996e+01 -7.217427405905564864e-94
8.719874999999990450e+01 -7.907134178343354106e-94
8.741249999999990905e+01 -6.871714460446838097e-94
8.762624999999991360e+01 -3.480143618163586050e-94
8.783999999999991815e+01 2.607092133708110143e-94
8.805374999999989427e+01 1.119747823196801389e-93
8.826749999999989882e+01 2.134152885647024468e-93
8.848124999999990337e+01 3.119043752025403262e-93
8.869499999999990791e+01 3.801598159410218871e-93
8.890874999999991246e+01 3.847056780825776670e-93
8.912249999999991701e+01 2.914226871778694627e-93
8.933624999999989313e+01 7.410646321974436159e-94
8.954999999999989768e+01 -2.746627318425719954e-93
8.976374999999990223e+01 -7.319898900274477121e-93
8.997749999999990678e+01 -1.235133877156005156e-92
9.019124999999991132e+01 -1.677459759680066767e-92
9.040499999999991587e+01 -1.913697888747002751e-92
9.061874999999989200e+01 -1.777850610668391502e-92
9.083249999999989654e+01 -1.115498927576673704e-92
9.104624999999990109e+01 1.705761448755824650e-93
9.125999999999990564e+01 2.066520334780074726e-92
9.147374999999991019e+01 4.395003698424522967e-92
9.168749999999991473e+01 6.778492946186711178e-92
9.190124999999989086e+01 8.635462667434569193e-92
9.211499999999989541e+01 9.226956812483667467e-92
9.232874999999989996e+01 7.766664564113206822e-92
9.254249999999990450e+01 3.597948452457986191e-92
9.275624999999990905e+01 -3.574156732055340506e-92
9.296999999999991360e+01 -1.342792828361322261e-91
9.318374999999988972e+01 -2.480053722851412954e-91
9.339749999999989427e+01 -3.556648406158897980e-91
9.361124999999989882e+01 -4.270053097773873988e-91
9.382499999999990337e+01 -4.259997081584404292e-91
9.403874999999990791e+01 -3.171189416128290621e-91
9.425249999999991246e+01 -7.456054501393599206e-92
9.446624999999988859e+01 3.064563733073579381e-91
9.467999999999989313e+01 7.981775466647093004e-91
9.489374999999989768e+01 1.331384967695757110e-90
9.510749999999990223e+01 1.792567563341046937e-90
9.532124999999990678e+01 2.030871619286282789e-90
9.553499999999991132e+01 1.877827788691086784e-90
9.574874999999988745e+01 1.181080285556967104e-90
9.596249999999989200e+01 -1.495918765065778532e-91
9.617624999999989654e+01 -2.089591390788154059e-90
9.638999999999990109e+01 -4.450174254642340496e-90
9.660374999999990564e+01 -6.846467612684437336e-90
9.681749999999991019e+01 -8.699185668607743238e-90
9.703124999999988631e+01 -9.285777004760247795e-90
9.724499999999989086e+01 -7.851871703482751619e-90
9.745874999999989541e+01 -3.783983281847268939e-90
9.767249999999989996e+01 3.170454640498842935e-90
9.788624999999990450e+01 1.266809840435011236e-89
9.809999999999990905e+01 2.357125164064360390e-89
9.831374999999988518e+01 3.385276719312845437e-89
9.852749999999988972e+01 4.067692750359484342e-89
9.874124999999989427e+01 4.071938789907854994e-89
9.895499999999989882e+01 3.075947047256852194e-89
9.916874999999990337e+01 8.525975071359893964e-90
9.938249999999990791e+01 -2.629423749997597471e-89
9.959624999999988404e+01 -7.105866620546888751e-89
9.980999999999988859e+01 -1.194350170546996315e-88
1.000237499999998931e+02 -1.612355124073401093e-88
1.002374999999998977e+02 -1.831260352182122044e-88
1.004512499999999022e+02 -1.704423462017758509e-88
1.006649999999999068e+02 -1.101793819307494235e-88
1.008787499999998829e+02 5.040070740700481105e-90
1.010924999999998875e+02 1.725429806470448147e-88
1.013062499999998920e+02 3.756107767545142304e-88
1.015199999999998965e+02 5.810929288589367880e-88
1.017337499999999011e+02 7.399583660226714294e-88
1.019474999999999056e+02 7.919999667055971690e-88
1.021612499999999102e+02 6.754412036677761336e-88
1.023749999999998863e+02 3.413294667833739951e-88
1.025887499999998909e+02 -2.286306132114710482e-88
1.028024999999998954e+02 -1.003611261015218489e-87
1.030162499999999000e+02 -1.888804435847249159e-87
1.032299999999999045e+02 -2.719455800893422215e-87
1.034437499999999091e+02 -3.269284958281414449e-87
1.036574999999998852e+02 -3.277744566300736164e-87
1.038712499999998897e+02 -2.497962673436154324e-87
1.040849999999998943e+02 -7.629749383234399143e-88
1.042987499999998988e+02 1.937703897693997394e-87
1.045124999999999034e+02 5.385222517487361406e-87
1.047262499999999079e+02 9.081694700281370029e-87
1.049399999999998840e+02 1.224614371869193658e-86
1.051537499999998886e+02 1.387746051623905323e-86
1.053674999999998931e+02 1.289890621214709125e-86
1.055812499999998977e+02 8.385250815312293787e-87
1.057949999999999022e+02 -1.460315808135724468e-88
1.060087499999999068e+02 -1.242193721552012433e-86
1.062224999999998829e+02 -2.714593042366612118e-86
1.064362499999998875e+02 -4.185962664236683009e-86
1.066499999999998920e+02 -5.302483318509362233e-86
1.068637499999998965e+02 -5.640287513548534689e-86
1.070774999999999011e+02 -4.776961205969101716e-86
1.072912499999999056e+02 -2.393981266096976711e-86
1.075049999999998818e+02 1.601205530934581703e-86
1.077187499999998863e+02 6.954445326084427499e-86
1.079324999999998909e+02 1.297526746241394128e-85
1.081462499999998954e+02 1.851357348091737102e-85
1.083599999999999000e+02 2.203697254177373356e-85
1.085737499999999045e+02 2.183359327699819285e-85
1.087874999999998806e+02 1.634555299075799373e-85
1.090012499999998852e+02 4.608898242913897233e-86
1.092149999999998897e+02 -1.326029448261204178e-85
1.094287499999998943e+02 -3.563097802667531284e-85
1.096424999999998988e+02 -5.909996000870384285e-85
1.098562499999999034e+02 -7.855026025306565840e-85
1.100699999999998795e+02 -8.764536519260171882e-85
1.102837499999998840e+02 -7.982585091529339087e-85
1.104974999999998886e+02 -4.978202383540308030e-85
1.107112499999998931e+02 4.749542500404769137e-86
1.109249999999998977e+02 8.115990864369622390e-85
1.111387499999999022e+02 1.705376394394158147e-84
1.113524999999998784e+02 2.571440045675708635e-84
1.115662499999998829e+02 3.192991852444585729e-84
1.117799999999998875e+02 3.320581672593628527e-84
1.119937499999998920e+02 2.717837662358783931e-84
1.122074999999998965e+02 1.223139803943502066e-84
1.124212499999999011e+02 -1.180873941935264904e-84
1.126349999999998772e+02 -4.303324833504136191e-84
1.128487499999998818e+02 -7.704202151912136181e-84
1.130624999999998863e+02 -1.069586969801396508e-83
1.132762499999998909e+02 -1.240409961389117185e-83
1.134899999999998954e+02 -1.189858298151226107e-83
1.137037499999999000e+02 -8.390351162217446357e-84
1.139174999999998761e+02 -1.476508547448590627e-84
1.141312499999998806e+02 8.606633764498337930e-84
1.143449999999998852e+02 2.077881958515523915e-83
1.145587499999998897e+02 3.302789079994341959e-83
1.147724999999998943e+02 4.250695451299393866e-83
1.149862499999998988e+02 4.586862907011207211e-83
1.151999999999998749e+02 3.985289979270550249e-83
1.154137499999998795e+02 2.209144243543605801e-83
1.156274999999998840e+02 -7.975166418904204964e-84
1.158412499999998886e+02 -4.823938854628024965e-83
1.160549999999998931e+02 -9.335477517173478364e-83
1.162687499999998977e+02 -1.346999554169469785e-82
1.164824999999999022e+02 -1.611009248513097700e-82
1.166962499999998784e+02 -1.604427042866134232e-82
1.169099999999998829e+02 -1.221427036975403751e-82
1.171237499999998875e+02 -4.024301966837367645e-83
1.173374999999998920e+02 8.336366328186199910e-83
1.175512499999998965e+02 2.362830100344080945e-82
1.177649999999999011e+02 3.943941825918446742e-82
1.179787499999998772e+02 5.228998182753777975e-82
1.181924999999998818e+02 5.802945607914410343e-82
1.184062499999998863e+02 5.254584169856817136e-82
1.186199999999998909e+02 3.274243035526921083e-82
1.188337499999998954e+02 -2.343680408394598978e-83
1.190474999999999000e+02 -5.048914825050029942e-82
1.192612499999998761e+02 -1.055707570803929179e-81
1.194749999999998806e+02 -1.574889010522123947e-81
1.196887499999998852e+02 -1.929915093960250902e-81
1.199024999999998897e+02 -1.975512115892945237e-81
1.201162499999998943e+02 -1.582596115268417011e-81
1.203299999999998988e+02 -6.744985266026292881e-82
1.205437499999998749e+02 7.352244033507571988e-82
1.207574999999998795e+02 2.511637259461639440e-81
1.209712499999998840e+02 4.383731194626922323e-81
1.211849999999998886e+02 5.955849489339074643e-81
1.213987499999998931e+02 6.752423488909861819e-81
1.216124999999998977e+02 6.298122308715530975e-81
1.218262499999998738e+02 4.228028133445918722e-81
1.220399999999998784e+02 4.134142148360346585e-82
1.222537499999998829e+02 -4.920327757810241839e-81
1.224674999999998875e+02 -1.111396668589745257e-80
1.226812499999998920e+02 -1.706563546658164629e-80
1.228949999999998965e+02 -2.132126094694408097e-80
1.231087499999998727e+02 -2.227985879791657321e-80
1.233224999999998772e+02 -1.850834834913636234e-80
1.235362499999998818e+02 -9.133098370006882381e-81
1.237499999999998863e+02 5.754430527853138822e-81
1.239637499999998909e+02 2.476671904177627311e-80
1.241774999999998954e+02 4.506763412574036028e-80
1.243912499999998715e+02 6.249825319426176035e-80
1.246049999999998761e+02 7.205262820472927085e-80
1.248187499999998806e+02 6.871974291178803147e-80
1.250324999999998852e+02 4.862893630197045192e-80
1.252462499999998897e+02 1.034334586888539073e-80
1.254599999999998943e+02 -4.394382360733720923e-80