2.024999999999579359e-01 1.031683648789836954e-121
4.162499999999482725e-01 1.196693807435114256e-121
6.299999999999528200e-01 9.537729766069009414e-122
8.437499999999573674e-01 -5.152139739642733994e-123
1.057499999999947704e+00 -2.202816545247777519e-121
1.271249999999952252e+00 -5.754954683857382426e-121
1.484999999999956799e+00 -1.055981133700812322e-120
1.698749999999947136e+00 -1.568041920358901384e-120
1.912499999999951683e+00 -1.895832589314686573e-120
2.126249999999956231e+00 -1.669484816635371005e-120
2.339999999999946567e+00 -3.729878835212210866e-121
2.553749999999951115e+00 2.567816537314013883e-120
2.767499999999955662e+00 7.571277501756604537e-120
2.981249999999945999e+00 1.452495625275608024e-119
3.194999999999950546e+00 2.225409179845269928e-119
3.408749999999955094e+00 2.791823771597136390e-119
3.622499999999945430e+00 2.654705312227273154e-119
3.836249999999949978e+00 1.108729195667052008e-119
4.049999999999954525e+00 -2.651082313813021609e-119
4.263749999999944862e+00 -9.256788047932058266e-119
4.477499999999949409e+00 -1.868460339342911302e-118
4.691249999999953957e+00 -2.956498309064804984e-118
4.904999999999944293e+00 -3.838959407188492762e-118
5.118749999999948841e+00 -3.887622018546947732e-118
5.332499999999953388e+00 -2.195198657476272592e-118
5.546249999999943725e+00 2.299213580960753300e-118
5.759999999999948272e+00 1.048328422313791436e-117
5.973749999999952820e+00 2.248491261718206937e-117
6.187499999999943157e+00 3.682676864060831607e-117
6.401249999999947704e+00 4.944154204625913923e-117
6.614999999999952252e+00 5.285252256020948943e-117
6.828749999999942588e+00 3.605784299386530940e-117
7.042499999999947136e+00 -1.411771251379643953e-117
7.256249999999951683e+00 -1.093317476963582390e-116
7.469999999999942020e+00 -2.529981901051160457e-116
7.683749999999946567e+00 -4.304908058799619502e-116
7.897499999999951115e+00 -5.975698560229146228e-116
8.111249999999941451e+00 -6.703878724856781465e-116
8.324999999999945999e+00 -5.230303959985299889e-116
8.538749999999950546e+00 -1.061562707029888448e-118
8.752499999999940883e+00 1.039214143642065390e-115
8.966249999999945430e+00 2.657862999388884529e-115
9.179999999999949978e+00 4.723870323408526883e-115
9.393749999999940314e+00 6.786253801859057540e-115
9.607499999999944862e+00 7.958676452123134189e-115
9.821249999999949409e+00 6.879972480371764792e-115
1.003499999999993975e+01 1.839690583220344111e-115
1.024874999999994429e+01 -8.828503752452940238e-115
1.046249999999994884e+01 -2.599991144544527717e-114
1.067624999999993918e+01 -4.864229400625739594e-114
1.088999999999994373e+01 -7.245475294834564207e-114
1.110374999999994827e+01 -8.860587667945611896e-114
1.131749999999993861e+01 -8.319123334001760933e-114
1.153124999999994316e+01 -3.830037474831189380e-114
1.174499999999994770e+01 6.427092281021240804e-114
1.195874999999993804e+01 2.357799677491736729e-113
1.217249999999994259e+01 4.695412592947067566e-113
1.238624999999994714e+01 7.272906629022215153e-113
1.259999999999993747e+01 9.261131164299393586e-113
1.281374999999994202e+01 9.317789801036086534e-113
1.302749999999994657e+01 5.669388924259725534e-113
1.324124999999995111e+01 -3.559007766680978689e-113
1.345499999999994145e+01 -1.967955592853708236e-112
1.366874999999994600e+01 -4.241492796914377499e-112
1.388249999999995055e+01 -6.860238375999326281e-112
1.409624999999994088e+01 -9.091129111958319559e-112
1.430999999999994543e+01 -9.709726454942934851e-112
1.452374999999994998e+01 -7.055538568886671121e-112
1.473749999999994031e+01 6.923431303276554304e-113
1.495124999999994486e+01 1.493847101535704036e-111
1.516499999999994941e+01 3.576202947463999848e-111
1.537874999999993975e+01 6.074866701444668076e-111
1.559249999999994429e+01 8.379977012806396750e-111
1.580624999999994884e+01 9.436419030237594427e-111
1.601999999999993918e+01 7.774664678651229369e-111
1.623374999999994373e+01 1.727600295818895276e-111
1.644749999999994827e+01 -1.009513561837167179e-110
1.666124999999993861e+01 -2.804388576049531653e-110
1.687499999999994316e+01 -5.043061198700245421e-110
1.708874999999994770e+01 -7.248370018903110529e-110
1.730249999999993804e+01 -8.561611415686441421e-110
1.751624999999994259e+01 -7.754090729508469843e-110
1.772999999999994714e+01 -3.387883047056656229e-110
1.794374999999993747e+01 5.814261389747326709e-110
1.815749999999994202e+01 2.036085609856927915e-109
1.837124999999994657e+01 3.918305335773358468e-109
1.858499999999993690e+01 5.876842479534935859e-109
1.879874999999994145e+01 7.251510204823138319e-109
1.901249999999994600e+01 7.072124289414769248e-109
1.922624999999993634e+01 4.171387950523741080e-109
1.943999999999994088e+01 -2.540846804063118674e-109
1.965374999999994543e+01 -1.361746919023739576e-108
1.986749999999993577e+01 -2.845354665481671761e-108
2.008124999999994031e+01 -4.460962171059819997e-108
2.029499999999994486e+01 -5.728408687508627198e-108
2.050874999999993520e+01 -5.924208572037871650e-108
2.072249999999993975e+01 -4.157504654333338946e-108
2.093624999999994429e+01 4.355619187904772141e-109
2.114999999999993463e+01 8.360325037223742079e-108
2.136374999999993918e+01 1.931216552170864034e-107
2.157749999999994373e+01 3.167908705151190745e-107
2.179124999999993406e+01 4.214408857916527432e-107
2.200499999999993861e+01 4.560516373785447354e-107
2.221874999999994316e+01 3.567660011363216487e-107
2.243249999999993349e+01 6.018708481471202836e-108
2.264624999999993804e+01 -4.737571569818819795e-107
2.285999999999994259e+01 -1.230625780142071150e-106
2.307374999999993292e+01 -2.107116575837002410e-106
2.328749999999993747e+01 -2.883614380503279529e-106
2.350124999999994202e+01 -3.218476105283128231e-106
2.371499999999993236e+01 -2.681733747138737614e-106
2.392874999999993690e+01 -8.443470692975930163e-107
2.414249999999994145e+01 2.569408425768691754e-106
2.435624999999993179e+01 7.476287028039397370e-106
2.456999999999993634e+01 1.321138908055532564e-105
2.478374999999994088e+01 1.835668373132129799e-105
2.499749999999993122e+01 2.071886733711809375e-105
2.521124999999993577e+01 1.756994359921877049e-105
2.542499999999994031e+01 6.248399783285897550e-106
2.563874999999993065e+01 -1.484375314366461182e-105
2.585249999999993520e+01 -4.493308090817748092e-105
2.606624999999993975e+01 -7.951561630966924183e-105
2.627999999999994429e+01 -1.094092526793616199e-104
2.649374999999993463e+01 -1.208565357833119545e-104
2.670749999999993918e+01 -9.738087653968482649e-105
2.692124999999994373e+01 -2.394653630402742933e-105
2.713499999999993406e+01 1.064958913802439348e-104
2.734874999999993861e+01 2.848335841149786957e-104
2.756249999999994316e+01 4.778966975904786671e-104
2.777624999999993349e+01 6.240277909388910289e-104
2.798999999999993804e+01 6.362882093741480619e-104
2.820374999999994259e+01 4.176009794395324308e-104
2.841749999999993292e+01 -1.092860842533186405e-104
2.863124999999993747e+01 -9.576868007203524053e-104
2.884499999999994202e+01 -2.025296333052193840e-103
2.905874999999993236e+01 -3.049295878459231371e-103
2.927249999999993690e+01 -3.590633059468828533e-103
2.948624999999994145e+01 -3.075322619049639552e-103
2.969999999999993179e+01 -9.194860096835214054e-104
2.991374999999993634e+01 3.247330143452464966e-103
3.012749999999994088e+01 9.272872895036366552e-103
3.034124999999993122e+01 1.614158024527824653e-102
3.055499999999993577e+01 2.171065489729590688e-102
3.076874999999994031e+01 2.268332189874831966e-102
3.098249999999993065e+01 1.501102878459948224e-102
3.119624999999993520e+01 -5.101335003904188117e-103
3.140999999999993975e+01 -3.950980037839896606e-102
3.162374999999993008e+01 -8.588664792348006367e-102
3.183749999999993463e+01 -1.353414895242847191e-101
3.205124999999993918e+01 -1.707066772778654599e-101
3.226499999999992951e+01 -1.666442695099097677e-101
3.247874999999993406e+01 -9.293189322052969787e-102
3.269249999999993861e+01 7.786533022287666705e-102
3.290624999999992895e+01 3.578361787196670910e-101
3.311999999999993349e+01 7.271969474526145755e-101
3.333374999999993804e+01 1.116863276666291011e-100
3.354749999999992838e+01 1.395824505806690479e-100
3.376124999999993292e+01 1.371568864914574326e-100
3.397499999999993747e+01 8.132770091342100789e-101
3.418874999999992781e+01 -4.934185013998609711e-101
3.440249999999993236e+01 -2.656044958729474676e-100
3.461624999999993690e+01 -5.554875865970351033e-100
3.482999999999992724e+01 -8.712886702556495058e-100
3.504374999999993179e+01 -1.119493335644155817e-99
3.525749999999993634e+01 -1.159334657127757043e-99
3.547124999999992667e+01 -8.168895421356131918e-100
3.568499999999993122e+01 7.875618855524014092e-101
3.589874999999993577e+01 1.633625631316651668e-99
3.611249999999992610e+01 3.803820915337708144e-99
3.632624999999993065e+01 6.299720078656374500e-99
3.653999999999993520e+01 8.504379391473356113e-99
3.675374999999992554e+01 9.444230908260475601e-99
3.696749999999993008e+01 7.859709681632750838e-99
3.718124999999993463e+01 2.423697771692787072e-99
3.739499999999992497e+01 -7.859974280066607285e-99
3.760874999999992951e+01 -2.308316814806468232e-98
3.782249999999993406e+01 -4.175238596685352066e-98
3.803624999999993861e+01 -6.015017300916290489e-98
3.824999999999994316e+01 -7.198025194575042665e-98
3.846374999999991928e+01 -6.861256505011663933e-98
3.867749999999992383e+01 -4.026733476403889974e-98
3.889124999999992838e+01 2.159489235463199905e-98
3.910499999999993292e+01 1.206189224621649398e-97
3.931874999999993747e+01 2.509484072827848524e-97
3.953249999999994202e+01 3.925012498888539934e-97
3.974624999999991815e+01 5.075688334766197142e-97
3.995999999999992269e+01 5.407371092170999583e-97
4.017374999999992724e+01 4.244191827513589107e-97
4.038749999999993179e+01 9.204597591288771564e-98
4.060124999999993634e+01 -5.000955044960948800e-97
4.081499999999994088e+01 -1.343463658942668142e-96
4.102874999999991701e+01 -2.344506737174944217e-96
4.124249999999992156e+01 -3.296612139963974642e-96
4.145624999999992610e+01 -3.868700550314109234e-96
4.166999999999993065e+01 -3.625100021478688793e-96
4.188374999999993520e+01 -2.091232078409572944e-96
4.209749999999993975e+01 1.125051176957810977e-96
4.231124999999991587e+01 6.157447925379663119e-96
4.252499999999992042e+01 1.266901128995158253e-95
4.273874999999992497e+01 1.964547969299324590e-95
4.295249999999992951e+01 2.526119191491198165e-95
4.316624999999993406e+01 2.690576775738013493e-95
4.337999999999993861e+01 2.146745008433614599e-95
4.359374999999991473e+01 5.952413120833880468e-96
4.380749999999991928e+01 -2.153194674313958682e-95
4.402124999999992383e+01 -6.049411552800330472e-95
4.423499999999992838e+01 -1.066718242830943901e-94
4.444874999999993292e+01 -1.508930196504593194e-94
4.466249999999993747e+01 -1.786835308521701882e-94
4.487624999999991360e+01 -1.712113039984524236e-94
4.508999999999991815e+01 -1.081281954167660252e-94
4.530374999999992269e+01 2.734399471456327082e-95
4.551749999999992724e+01 2.411873985856606780e-94
4.573124999999993179e+01 5.200255658177197308e-94
4.594499999999993634e+01 8.229224165974856231e-94
4.615874999999991246e+01 1.076184478892953149e-93
4.637249999999991701e+01 1.174554086270348076e-93
4.658624999999992156e+01 9.923885706529298301e-94
4.679999999999992610e+01 4.077005689322341837e-94
4.701374999999993065e+01 -6.600648979458669442e-94
4.722749999999993520e+01 -2.201110689610616313e-93
4.744124999999993975e+01 -4.062636142365251421e-93
4.765499999999991587e+01 -5.905439941352798664e-93
4.786874999999992042e+01 -7.187934891228531764e-93
4.808249999999992497e+01 -7.198763207612701412e-93
4.829624999999992951e+01 -5.157938646665991636e-93
4.850999999999993406e+01 -3.986937115638883307e-94
4.872374999999993861e+01 7.373648606758286871e-93
4.893749999999991473e+01 1.777368579515999908e-92
4.915124999999991928e+01 2.943734515646278036e-92
4.936499999999992383e+01 3.982322331049798720e-92
4.957874999999992838e+01 4.522952497243722647e-92
4.979249999999993292e+01 4.114935982570609318e-92
5.000624999999993747e+01 2.306364473929874921e-92
5.021999999999991360e+01 -1.229443920448545583e-92
5.043374999999991815e+01 -6.528243522064887237e-92
5.064749999999992269e+01 -1.315344773031264829e-91
5.086124999999992724e+01 -2.004065852144318928e-91
5.107499999999993179e+01 -2.542672160601480342e-91
5.128874999999993634e+01 -2.693221778503968747e-91
5.150249999999991246e+01 -2.186335779048779524e-91
5.171624999999991701e+01 -7.776254195410807891e-92
5.192999999999992156e+01 1.670156326872299877e-91
5.214374999999992610e+01 5.087171298258931638e-91
5.235749999999993065e+01 9.096150070586511320e-91
5.257124999999993520e+01 1.293907149409779082e-90
5.278499999999991132e+01 1.546647927876168108e-90
5.299874999999991587e+01 1.522807619932592616e-90
5.321249999999992042e+01 1.069737675502690767e-90
5.342624999999992497e+01 6.450598259103977672e-92
5.363999999999992951e+01 -1.535668329685230499e-90
5.385374999999993406e+01 -3.636218766597121921e-90
5.406749999999991019e+01 -5.953013733337696694e-90
5.428124999999991473e+01 -7.982088809137490265e-90
5.449499999999991928e+01 -9.011849721413771302e-90
5.470874999999992383e+01 -8.198238640097169397e-90
5.492249999999992838e+01 -4.717778270666988014e-90
5.513624999999993292e+01 1.999282509279695093e-90
5.534999999999990905e+01 1.197380780150097889e-89
5.556374999999991360e+01 2.436535220795976409e-89
5.577749999999991815e+01 3.721659721804915384e-89
5.599124999999992269e+01 4.735445550389587249e-89
5.620499999999992724e+01 5.056078913729867461e-89
5.641874999999993179e+01 4.211591704292528572e-89
5.663249999999990791e+01 1.777552242122261829e-89
5.684624999999991246e+01 -2.484032455196286496e-89
5.705999999999991701e+01 -8.458818830559493516e-89
5.727374999999992156e+01 -1.551634922588156377e-88
5.748749999999992610e+01 -2.239280899623219844e-88
5.770124999999993065e+01 -2.717661155568831068e-88
5.791499999999990678e+01 -2.745659330578521215e-88
5.812874999999991132e+01 -2.068226568929053203e-88
5.834249999999991587e+01 -4.756694905852318156e-89
5.855624999999992042e+01 2.116722715021910202e-88
5.876999999999992497e+01 5.578528862877536595e-88
5.898374999999992951e+01 9.481370717469903927e-88
5.919749999999990564e+01 1.304894122300727487e-87
5.941124999999991019e+01 1.517056662909839052e-87
5.962499999999991473e+01 1.450892022324098747e-87
5.983874999999991928e+01 9.724473072184126035e-88
6.005249999999992383e+01 -1.788850841422071207e-89
6.026624999999992838e+01 -1.541156692337993153e-87
6.047999999999990450e+01 -3.492184668940762207e-87
6.069374999999990905e+01 -5.598977170165479636e-87
6.090749999999991360e+01 -7.403332105641535815e-87
6.112124999999991815e+01 -8.278941440289669113e-87
6.133499999999992269e+01 -7.502233617942099973e-87
6.154874999999992724e+01 -4.385778073205443066e-87
6.176249999999993179e+01 1.526731503080810764e-87
6.197624999999990791e+01 1.022112570677235898e-86
6.218999999999991246e+01 2.096660472947185220e-86
6.240374999999991701e+01 3.212180710892072158e-86
6.261749999999992156e+01 4.106982718900599245e-86
6.283124999999992610e+01 4.436639736260157620e-86
6.304499999999993065e+01 3.817553232645327831e-86
6.325874999999990678e+01 1.903307373841053149e-86
6.347249999999991132e+01 -1.508309050906065214e-86
6.368624999999991587e+01 -6.348568289981419422e-86
6.389999999999992042e+01 -1.215296630507467543e-85
6.411374999999992497e+01 -1.797063199004167965e-85
6.432749999999992951e+01 -2.234850854755906693e-85
6.454124999999990564e+01 -2.343307776314985206e-85
6.475499999999991019e+01 -1.922510380705747887e-85
6.496874999999991473e+01 -8.002968557932765400e-86
6.518249999999991928e+01 1.110383929857588862e-85
6.539624999999992383e+01 3.745637760154934903e-85
6.560999999999992838e+01 6.828295816618169720e-85
6.582374999999990450e+01 9.826358614963145181e-85
6.603749999999990905e+01 1.195317030013387488e-84
6.625124999999991360e+01 1.223066297202095019e-84
6.646499999999991815e+01 9.632314697651864959e-85
6.667874999999992269e+01 3.311278302123575891e-85
6.689249999999992724e+01 -7.099062247334766276e-85
6.710624999999990337e+01 -2.114912430874897883e-84
6.731999999999990791e+01 -3.726620400657261727e-84
6.753374999999991246e+01 -5.256651962852758361e-84
6.774749999999991701e+01 -6.289240224526694869e-84
6.796124999999992156e+01 -6.317928333982620630e-84
6.817499999999992610e+01 -4.822928761261841178e-84
6.838874999999990223e+01 -1.390775332549767774e-84
6.860249999999990678e+01 4.131564997042795054e-84
6.881624999999991132e+01 1.146823179070876273e-83
6.902999999999991587e+01 1.976527859922428498e-83
6.924374999999992042e+01 2.750643113137173223e-83
6.945749999999992497e+01 3.254647697591437187e-83
6.967124999999990109e+01 3.231271031740392763e-83
6.988499999999990564e+01 2.420933825103384511e-83
7.009874999999991019e+01 6.228213509317148844e-84
7.031249999999991473e+01 -2.227856631846358411e-83
7.052624999999991928e+01 -5.976923214154711718e-83
7.073999999999992383e+01 -1.017961615126203006e-82
7.095374999999989996e+01 -1.406291150046938862e-82
7.116749999999990450e+01 -1.654735175606930916e-82
7.138124999999990905e+01 -1.635223248450627088e-82
7.159499999999991360e+01 -1.219980229332686660e-82
7.180874999999991815e+01 -3.118267816142744098e-83
7.202249999999992269e+01 1.118004739924076412e-82
7.223624999999989882e+01 2.989814397689216207e-82
7.244999999999990337e+01 5.081473465448407955e-82
7.266374999999990791e+01 7.011451238647422952e-82
7.287749999999991246e+01 8.250942481368282921e-82
7.309124999999991701e+01 8.176169103825484333e-82
7.330499999999992156e+01 6.167811459099137388e-82
7.351874999999989768e+01 1.756842755384948787e-82
7.373249999999990223e+01 -5.195083877293786981e-82
7.394624999999990678e+01 -1.430613187840232322e-81
7.415999999999991132e+01 -2.451513793232082156e-81
7.437374999999991587e+01 -3.400376047271775886e-81
7.458749999999992042e+01 -4.025587966081372050e-81
7.480124999999992497e+01 -4.030468898209798148e-81
7.501499999999990109e+01 -3.119827672868232667e-81
7.522874999999990564e+01 -1.067877331373277272e-81
7.544249999999991019e+01 2.198082249269275127e-81
7.565624999999991473e+01 6.509952281146377515e-81
7.586999999999991928e+01 1.138511210864186892e-80
7.608374999999992383e+01 1.598974713271552074e-80
7.629749999999989996e+01 1.916439734479036352e-80
7.651124999999990450e+01 1.953427824781847621e-80
7.672499999999990905e+01 1.571806341782115776e-80
7.693874999999991360e+01 6.632926660918751767e-81
7.715249999999991815e+01 -8.128829851465662399e-81
7.736624999999992269e+01 -2.790316866348296100e-80
7.757999999999989882e+01 -5.061669485055308651e-80
7.779374999999990337e+01 -7.260887143980732927e-80
7.800749999999990791e+01 -8.872412096737424553e-80
7.822124999999991246e+01 -9.277282949535803617e-80
7.843499999999991701e+01 -7.842270185381901027e-80
7.864874999999992156e+01 -4.051464355375044318e-80
7.886249999999989768e+01 2.329764624280713327e-80
7.907624999999990223e+01 1.107990153609565171e-79
7.928999999999990678e+01 2.136857271884523791e-79
7.950374999999991132e+01 3.166843383068076234e-79
7.971749999999991587e+01 3.977833862270225423e-79
7.993124999999992042e+01 4.300047904555279087e-79
8.014499999999989654e+01 3.849940733849765395e-79
8.035874999999990109e+01 2.384396210722716512e-79
8.057249999999990564e+01 -2.305160276950998375e-80
8.078624999999991019e+01 -3.944569983891867045e-79
8.099999999999991473e+01 -8.455324426515951060e-79
8.121374999999991928e+01 -1.316408381454783746e-78
8.142749999999989541e+01 -1.717502885227107130e-78
8.164124999999989996e+01 -1.935556418331579869e-78
8.185499999999990450e+01 -1.847065757368058359e-78
8.206874999999990905e+01 -1.339393053981853372e-78
8.228249999999991360e+01 -3.383683568803288511e-79
8.249624999999991815e+01 1.160592215117914470e-78
8.270999999999989427e+01 3.062733299175079628e-78
8.292374999999989882e+01 5.152120537504757502e-78
8.313749999999990337e+01 7.085270955762745186e-78
8.335124999999990791e+01 8.407705877861505162e-78
8.356499999999991246e+01 8.599259334767143765e-78
8.377874999999991701e+01 7.150585893858848466e-78
8.399249999999989313e+01 3.668150205795707686e-78
8.420624999999989768e+01 -2.001614512019885847e-78
8.441999999999990223e+01 -9.645582612673522259e-78
8.463374999999990678e+01 -1.857810067976610078e-77
8.484749999999991132e+01 -2.758444559614235223e-77
8.506124999999991587e+01 -3.494341214170363213e-77
8.527499999999989200e+01 -3.855524057549484019e-77
8.548874999999989654e+01 -3.619126769454571301e-77
8.570249999999990109e+01 -2.586524339317745055e-77
8.591624999999990564e+01 -6.303832550417106212e-78
8.612999999999991019e+01 2.253266912781105016e-77
8.634374999999991473e+01 5.895566573752940071e-77
8.655749999999989086e+01 9.917947945105387234e-77
8.677124999999989541e+01 1.371927959810458171e-76
8.698499999999989996e+01 1.649844670252217008e-76
8.719874999999990450e+01 1.732178385319077168e-76
8.741249999999990905e+01 1.524045824272621549e-76
8.762624999999991360e+01 9.456169395921888302e-77
8.783999999999991815e+01 -4.753505331174892247e-78
8.805374999999989427e+01 -1.442390324182890993e-76
8.826749999999989882e+01 -3.147901369252567776e-76
8.848124999999990337e+01 -4.979976335106871822e-76
8.869499999999990791e+01 -6.656761748389568362e-76
8.890874999999991246e+01 -7.809067551825276677e-76
8.912249999999991701e+01 -8.010149703300105769e-76
8.933624999999989313e+01 -6.827521265739427045e-76
8.954999999999989768e+01 -3.896884732218904624e-76
8.976374999999990223e+01 9.853465930788366079e-77
8.997749999999990678e+01 7.759006479788779287e-76
9.019124999999991132e+01 1.599980003696565028e-75
9.040499999999991587e+01 2.483992194827275928e-75
9.061874999999989200e+01 3.293234017458867424e-75
9.083249999999989654e+01 3.848389129663102907e-75
9.104624999999990109e+01 3.938165974914761287e-75
9.125999999999990564e+01 3.343191677049024244e-75
9.147374999999991019e+01 1.871990255796953242e-75
9.168749999999991473e+01 -5.918936222707913622e-76
9.190124999999989086e+01 -4.035010276657354531e-75
9.211499999999989541e+01 -8.257759218513679524e-75
9.232874999999989996e+01 -1.282648525247047436e-74
9.254249999999990450e+01 -1.704673171583815436e-74
9.275624999999990905e+01 -1.997268608197772468e-74
9.296999999999991360e+01 -2.046828900554195913e-74
9.318374999999988972e+01 -1.733312592014913660e-74
9.339749999999989427e+01 -9.500115881953456191e-75
9.361124999999989882e+01 3.698544754065928309e-75
9.382499999999990337e+01 2.221588080834285716e-74
9.403874999999990791e+01 4.496278972578404596e-74
9.425249999999991246e+01 6.952749863473878043e-74
9.446624999999988859e+01 9.202001125435231615e-74
9.467999999999989313e+01 1.071330872936717623e-73
9.489374999999989768e+01 1.085125800333137463e-73
9.510749999999990223e+01 8.951280897090103177e-74
9.532124999999990678e+01 4.437139204340245915e-74
9.553499999999991132e+01 -3.023080637460856700e-74
9.574874999999988745e+01 -1.333545097244741386e-73
9.596249999999989200e+01 -2.579770806680457999e-73
9.617624999999989654e+01 -3.895242928775898614e-73
9.638999999999990109e+01 -5.052291360956445413e-73
9.660374999999990564e+01 -5.748441758520718111e-73
9.681749999999991019e+01 -5.632075262922625844e-73
9.703124999999988631e+01 -4.350188081240970000e-73
9.724499999999989086e+01 -1.618942220771772699e-73
9.745874999999989541e+01 2.686693741619207026e-73
9.767249999999989996e+01 8.433628382341679374e-73
9.788624999999990450e+01 1.513752853332776515e-72
9.809999999999990905e+01 2.189796430738578387e-72
9.831374999999988518e+01 2.738838054007871654e-72
9.852749999999988972e+01 2.992850582866496226e-72
9.874124999999989427e+01 2.766257141327505809e-72
9.895499999999989882e+01 1.885560608843230431e-72
9.916874999999990337e+01 2.301241763816265997e-73
9.938249999999990791e+01 -2.219171040738027372e-72
9.959624999999988404e+01 -5.329805403480242657e-72
9.980999999999988859e+01 -8.775693719893379239e-72
1.000237499999998931e+02 -1.201581833700475670e-71
1.002374999999998977e+02 -1.430715361640369556e-71
1.004512499999999022e+02 -1.476473365461502461e-71
1.006649999999999068e+02 -1.247775874363014710e-71
1.008787499999998829e+02 -6.683042638189197534e-72
1.010924999999998875e+02 3.014173340075058403e-72
1.013062499999998920e+02 1.639626228790104578e-71
1.015199999999998965e+02 3.240590221213949100e-71
1.017337499999999011e+02 4.898943197955667040e-71
1.019474999999999056e+02 6.307420431274216515e-71
1.021612499999999102e+02 7.074356256789512453e-71
1.023749999999998863e+02 6.766031589141804415e-71
1.025887499999998909e+02 4.976072568070190734e-71
1.028024999999998954e+02 1.419501384503277249e-71
1.030162499999999000e+02 -3.957064012815570969e-71
1.032299999999999045e+02 -1.086455842701230610e-70
1.034437499999999091e+02 -1.858228126716433848e-70
1.036574999999998852e+02 -2.591784257115927863e-70
1.038712499999998897e+02 -3.124542967890369693e-70
1.040849999999998943e+02 -3.264803462519466981e-70
1.042987499999998988e+02 -2.817896837194820467e-70
1.045124999999999034e+02 -1.624016488490856792e-70
1.047262499999999079e+02 3.950055914329230840e-71
1.049399999999998840e+02 3.185678674308762346e-70
1.051537499999998886e+02 6.518339976905918445e-70
1.053674999999998931e+02 9.959435661576023652e-70
1.055812499999998977e+02 1.287317685364229312e-69
1.057949999999999022e+02 1.446442178138098250e-69
1.060087499999999068e+02 1.387119738692678747e-69
1.062224999999998829e+02 1.030871576523361973e-69
1.064362499999998875e+02 3.257120131894839030e-70
1.066499999999998920e+02 -7.326781811959895402e-70
1.068637499999998965e+02 -2.080639859572280163e-69
1.070774999999999011e+02 -3.571494405585350716e-69
1.072912499999999056e+02 -4.970907848812670229e-69
1.075049999999998818e+02 -5.967778242043825841e-69
1.077187499999998863e+02 -6.204713490496236241e-69
1.079324999999998909e+02 -5.329880795572537000e-69
1.081462499999998954e+02 -3.068457161871548111e-69
1.083599999999999000e+02 6.926941577098382813e-70
1.085737499999999045e+02 5.818645153844072897e-69
1.087874999999998806e+02 1.185472179476572411e-68
1.090012499999998852e+02 1.798943970457402089e-68
1.092149999999998897e+02 2.307291125793002773e-68
1.094287499999998943e+02 2.570873815446659369e-68
1.096424999999998988e+02 2.442989408652740330e-68
1.098562499999999034e+02 1.795661804527284585e-68
1.100699999999998795e+02 5.517448730620462020e-69
1.102837499999998840e+02 -1.280510373077223076e-68
1.104974999999998886e+02 -3.576229309993204277e-68
1.107112499999998931e+02 -6.073387775785973012e-68
1.109249999999998977e+02 -8.371046241819219654e-68
1.111387499999999022e+02 -9.953788210057406239e-68
1.113524999999998784e+02 -1.024750464192650134e-67
1.115662499999998829e+02 -8.707499081874360874e-68
1.117799999999998875e+02 -4.933978910717330375e-68
1.119937499999998920e+02 1.197143181063487365e-68
1.122074999999998965e+02 9.407647942959088043e-68
1.124212499999999011e+02 1.892050652499321106e-67
1.126349999999998772e+02 2.842308958940084412e-67
1.128487499999998818e+02 3.611905282882848024e-67
1.130624999999998863e+02 3.989139036737169636e-67
1.132762499999998909e+02 3.758600015139798548e-67
1.134899999999998954e+02 2.740542063012241031e-67
1.137037499999999000e+02 8.377627216345113531e-68
1.139174999999998761e+02 -1.916212942921417446e-67
1.141312499999998806e+02 -5.316309605321808165e-67
1.143449999999998852e+02 -8.962789197629048400e-67
1.145587499999998897e+02 -1.226650549382448368e-66
1.147724999999998943e+02 -1.449157277369819920e-66
1.149862499999998988e+02 -1.484060577864507344e-66
1.151999999999998749e+02 -1.258146593697303156e-66
1.154137499999998795e+02 -7.206268539414104963e-67
1.156274999999998840e+02 1.395857082765210489e-67
1.158412499999998886e+02 1.277972653753055304e-66
1.160549999999998931e+02 2.583312256381848373e-66
1.162687499999998977e+02 3.875099882005409515e-66
1.164824999999999022e+02 4.912875365404728328e-66
1.166962499999998784e+02 5.419781401019521264e-66
1.169099999999998829e+02 5.120821368828446398e-66
1.171237499999998875e+02 3.793721996168453708e-66
1.173374999999998920e+02 1.327279315998627633e-66
1.175512499999998965e+02 -2.221014136986761900e-66
1.177649999999999011e+02 -6.578842546077386861e-66
1.179787499999998772e+02 -1.123665929508587260e-65
1.181924999999998818e+02 -1.546087585270388579e-65
1.184062499999998863e+02 -1.835189250034168091e-65
1.186199999999998909e+02 -1.895104420303810017e-65
1.188337499999998954e+02 -1.639296170588103714e-65
1.190474999999999000e+02 -1.009049980293782355e-65
1.192612499999998761e+02 7.058892336123759988e-68
1.194749999999998806e+02 1.355903274282454200e-65
1.196887499999998852e+02 2.908530464240364168e-65
1.199024999999998897e+02 4.458769313874185204e-65
1.201162499999998943e+02 5.735052788630352584e-65
1.203299999999998988e+02 6.427464500332210064e-65
1.205437499999998749e+02 6.229928441922553204e-65
1.207574999999998795e+02 4.894754738086567570e-65
1.209712499999998840e+02 2.293731204435726314e-65
1.211849999999998886e+02 -1.522943008617887595e-65
1.213987499999998931e+02 -6.280796259445109841e-65
1.216124999999998977e+02 -1.146014745319758289e-64
1.218262499999998738e+02 -1.631107532248665960e-64
1.220399999999998784e+02 -1.991223684345485562e-64
1.222537499999998829e+02 -2.127618963218361844e-64
1.224674999999998875e+02 -1.949663296758989098e-64
1.226812499999998920e+02 -1.392451275749200888e-64
1.228949999999998965e+02 -4.351373241158291571e-65
1.231087499999998727e+02 8.828860147726598737e-65
1.233224999999998772e+02 2.451271144607747543e-64
1.235362499999998818e+02 4.086739560857281316e-64
1.237499999999998863e+02 5.542542568281053486e-64
1.239637499999998909e+02 6.530866917550589944e-64
1.241774999999998954e+02 6.757953207199278957e-64
1.243912499999998715e+02 5.969557561856279818e-64
1.246049999999998761e+02 4.002114559985202974e-64
1.248187499999998806e+02 8.328973239182139931e-65
1.250324999999998852e+02 -3.378992117377595438e-64
1.252462499999998897e+02 -8.269458590973312188e-64
1.254599999999998943e+02 -1.327195683718907287e-63
1.256737499999998704e+02 -1.765144164602329417e-63
1.258874999999998749e+02 -2.057190025046813291e-63
1.261012499999998795e+02 -2.119506984360778881e-63