2.024999999999579359e-01 2.779883422223218535e-93
4.162499999999482725e-01 1.016319025191736961e-92
6.299999999999528200e-01 1.949982215418461664e-92
8.437499999999573674e-01 2.871631960507096725e-92
1.057499999999947704e+00 3.415143510843434421e-92
1.271249999999952252e+00 3.072591564171264471e-92
1.484999999999956799e+00 1.278847018309457454e-92
1.698749999999947136e+00 -2.416562344746228050e-92
1.912499999999951683e+00 -8.088961957936541454e-92
2.126249999999956231e+00 -1.512068151089344848e-91
2.339999999999946567e+00 -2.190253032715396525e-91
2.553749999999951115e+00 -2.568189737168584907e-91
2.767499999999955662e+00 -2.272544327595401056e-91
2.981249999999945999e+00 -8.972434255101931228e-92
3.194999999999950546e+00 1.869688575990060977e-91
3.408749999999955094e+00 6.058974099920626006e-91
3.622499999999945430e+00 1.119704760651358499e-90
3.836249999999949978e+00 1.610292165044144839e-90
4.049999999999954525e+00 1.879452303239450100e-90
4.263749999999944862e+00 1.661967745407907553e-90
4.477499999999949409e+00 6.729041178183341972e-91
4.691249999999953957e+00 -1.303084897129292256e-90
4.904999999999944293e+00 -4.282210677008458190e-90
5.118749999999948841e+00 -7.929392918264440272e-90
5.332499999999953388e+00 -1.142202354633461502e-89
5.546249999999943725e+00 -1.339018490267720497e-89
5.759999999999948272e+00 -1.200985296850782825e-89
5.973749999999952820e+00 -5.325630867552091631e-90
6.187499999999943157e+00 8.147699724823925659e-90
6.401249999999947704e+00 2.855955523536003442e-89
6.614999999999952252e+00 5.371252007054297352e-89
6.828749999999942588e+00 7.815956838366819331e-89
7.042499999999947136e+00 9.280340680158893348e-89
7.256249999999951683e+00 8.549168045328259799e-89
7.469999999999942020e+00 4.309850291187426598e-89
7.683749999999946567e+00 -4.459363992736363763e-89
7.897499999999951115e+00 -1.793047865209623870e-88
8.111249999999941451e+00 -3.477094881162910724e-88
8.324999999999945999e+00 -5.155243088398935093e-88
8.538749999999950546e+00 -6.247012973642471348e-88
8.752499999999940883e+00 -5.968237899218149910e-88
8.966249999999945430e+00 -3.457937955468302344e-88
9.179999999999949978e+00 1.981637020469375029e-88
9.393749999999940314e+00 1.053622916071497762e-87
9.607499999999944862e+00 2.146627009965500202e-87
9.821249999999949409e+00 3.272477498760718029e-87
1.003499999999993975e+01 4.075587301070320547e-87
1.024874999999994429e+01 4.066280464089307465e-87
1.046249999999994884e+01 2.693666091717966327e-87
1.067624999999993918e+01 -5.122481297321224499e-88
1.088999999999994373e+01 -5.730297822324641010e-87
1.110374999999994827e+01 -1.259412004154787226e-86
1.131749999999993861e+01 -1.994915601527981087e-86
1.153124999999994316e+01 -2.570786001794701757e-86
1.174499999999994770e+01 -2.691508931730199806e-86
1.195874999999993804e+01 -2.013998585738907997e-86
1.217249999999994259e+01 -2.279928068837995821e-87
1.238624999999994714e+01 2.821619678262256968e-86
1.259999999999993747e+01 6.982918291443684401e-86
1.281374999999994202e+01 1.164540450117579178e-85
1.302749999999994657e+01 1.563777026564008096e-85
1.324124999999995111e+01 1.723951698662017856e-85
1.345499999999994145e+01 1.437577680158644576e-85
1.366874999999994600e+01 5.050455158068097301e-86
1.388249999999995055e+01 -1.196793111920085983e-85
1.409624999999994088e+01 -3.626433681477972360e-85
1.430999999999994543e+01 -6.485356477593255808e-85
1.452374999999994998e+01 -9.147976897786766948e-85
1.473749999999994031e+01 -1.065003261633539295e-84
1.495124999999994486e+01 -9.775876918019123628e-85
1.516499999999994941e+01 -5.279557370364179897e-85
1.537874999999993975e+01 3.745372735214896876e-85
1.559249999999994429e+01 1.736930208653690191e-84
1.580624999999994884e+01 3.427824737624525461e-84
1.601999999999993918e+01 5.131129381862486703e-84
1.623374999999994373e+01 6.327998520489461592e-84
1.644749999999994827e+01 6.330027685164658261e-84
1.666124999999993861e+01 4.385242495737089003e-84
1.687499999999994316e+01 -1.306378021498869753e-85
1.708874999999994770e+01 -7.443597962318497344e-84
1.730249999999993804e+01 -1.706518568140596767e-83
1.751624999999994259e+01 -2.749921370795654049e-83
1.772999999999994714e+01 -3.607456572750883262e-83
1.794374999999993747e+01 -3.903215051518366703e-83
1.815749999999994202e+01 -3.199512058730225710e-83
1.837124999999994657e+01 -1.091415392632810912e-83
1.858499999999993690e+01 2.650806433288291532e-83
1.879874999999994145e+01 7.905102872824757601e-83
1.901249999999994600e+01 1.401935504127088936e-82
1.922624999999993634e+01 1.968396909127563333e-82
1.943999999999994088e+01 2.292446619111429459e-82
1.965374999999994543e+01 2.128895327910960706e-82
1.986749999999993577e+01 1.229215834256571632e-82
2.008124999999994031e+01 -5.861898849033824483e-83
2.029499999999994486e+01 -3.332655882613894165e-82
2.050874999999993520e+01 -6.757420551846108599e-82
2.072249999999993975e+01 -1.025315599850889791e-81
2.093624999999994429e+01 -1.282504980959493620e-81
2.114999999999993463e+01 -1.315335469130970313e-81
2.136374999999993918e+01 -9.789973842957704039e-82
2.157749999999994373e+01 -1.510813674976319065e-82
2.179124999999993406e+01 1.218771254128951800e-81
2.200499999999993861e+01 3.050940072541444769e-81
2.221874999999994316e+01 5.081865709988700671e-81
2.243249999999993349e+01 6.832402383802261121e-81
2.264624999999993804e+01 7.621089412122427008e-81
2.285999999999994259e+01 6.645020000858340455e-81
2.307374999999993292e+01 3.144366822494069066e-81
2.328749999999993747e+01 -3.348667357131802754e-81
2.350124999999994202e+01 -1.270023412513022409e-80
2.371499999999993236e+01 -2.386022784779391866e-80
2.392874999999993690e+01 -3.463248820291370750e-80
2.414249999999994145e+01 -4.164716726378719418e-80
2.435624999999993179e+01 -4.066151243511986730e-80
2.456999999999993634e+01 -2.729205687758402974e-80
2.478374999999994088e+01 1.786040601580168862e-81
2.499749999999993122e+01 4.725362442030286801e-80
2.521124999999993577e+01 1.054178569816456965e-79
2.542499999999994031e+01 1.667620047295095480e-79
2.563874999999993065e+01 2.153605195059560042e-79
2.585249999999993520e+01 2.298278082455109612e-79
2.606624999999993975e+01 1.864021989826461281e-79
2.627999999999994429e+01 6.448453176975406152e-80
2.649374999999993463e+01 -1.455859912056791266e-79
2.670749999999993918e+01 -4.335141992337503655e-79
2.692124999999994373e+01 -7.607122570593269077e-79
2.713499999999993406e+01 -1.055454193385442660e-78
2.734874999999993861e+01 -1.214896937820361604e-78
2.756249999999994316e+01 -1.117238306838086400e-78
2.777624999999993349e+01 -6.461634344623595238e-79
2.798999999999993804e+01 2.726400533989032429e-79
2.820374999999994259e+01 1.626743970057569929e-78
2.841749999999993292e+01 3.272381483285760705e-78
2.863124999999993747e+01 4.902933530249345682e-78
2.884499999999994202e+01 6.046790509742381910e-78
2.905874999999993236e+01 6.111339080566687930e-78
2.927249999999993690e+01 4.485684050912828449e-78
2.948624999999994145e+01 7.046735605599809557e-79
2.969999999999993179e+01 -5.339439909806116403e-78
2.991374999999993634e+01 -1.317244921428306005e-77
3.012749999999994088e+01 -2.155793870059524590e-77
3.034124999999993122e+01 -2.843656683925750809e-77
3.055499999999993577e+01 -3.106624817646224958e-77
3.076874999999994031e+01 -2.643067289469919282e-77
3.098249999999993065e+01 -1.194299249782354023e-77
3.119624999999993520e+01 1.359825552146403399e-77
3.140999999999993975e+01 4.893819143933037716e-77
3.162374999999993008e+01 8.942153968849068779e-77
3.183749999999993463e+01 1.265081702725094150e-76
3.205124999999993918e+01 1.481246081322243322e-76
3.226499999999992951e+01 1.401876763781411292e-76
3.247874999999993406e+01 8.948045721222722876e-77
3.269249999999993861e+01 -1.222634120657823631e-77
3.290624999999992895e+01 -1.633187032928178406e-76
3.311999999999993349e+01 -3.477273291829477716e-76
3.333374999999993804e+01 -5.319674378580808352e-76
3.354749999999992838e+01 -6.654921054489813538e-76
3.376124999999993292e+01 -6.859382386352777665e-76
3.397499999999993747e+01 -5.302797994453436129e-76
3.418874999999992781e+01 -1.517737324757405503e-76
3.440249999999993236e+01 4.590756974202326590e-76
3.461624999999993690e+01 1.253299591912630621e-75
3.482999999999992724e+01 2.107692558757422832e-75
3.504374999999993179e+01 2.821495415028196852e-75
3.525749999999993634e+01 3.132563459991114123e-75
3.547124999999992667e+01 2.758151474983851099e-75
3.568499999999993122e+01 1.461217452894998892e-75
3.589874999999993577e+01 -8.633724660148476056e-76
3.611249999999992610e+01 -4.096477232027772672e-75
3.632624999999993065e+01 -7.818159734127953540e-75
3.653999999999993520e+01 -1.127524582027008793e-74
3.675374999999992554e+01 -1.342272225044817086e-74
3.696749999999993008e+01 -1.306292342858241099e-74
3.718124999999993463e+01 -9.091450257629154599e-75
3.739499999999992497e+01 -8.343258676058677551e-76
3.760874999999992951e+01 1.157076499425161458e-74
3.782249999999993406e+01 2.682999865011465402e-74
3.803624999999993861e+01 4.229415753150585337e-74
3.824999999999994316e+01 5.402441345018988186e-74
3.846374999999991928e+01 5.722762043300821370e-74
3.867749999999992383e+01 4.711553382282439055e-74
3.889124999999992838e+01 2.015526891229470902e-74
3.910499999999993292e+01 -2.443935138199079946e-74
3.931874999999993747e+01 -8.325663501518354234e-74
3.953249999999994202e+01 -1.476721993888400486e-73
3.974624999999991815e+01 -2.037288729182797735e-73
3.995999999999992269e+01 -2.333395367580519725e-73
4.017374999999992724e+01 -2.170861192377258641e-73
4.038749999999993179e+01 -1.385943921509859285e-73
4.060124999999993634e+01 9.951256605109071046e-75
4.081499999999994088e+01 2.220706884896197535e-73
4.102874999999991701e+01 4.723977324400965667e-73
4.124249999999992156e+01 7.148979349607384939e-73
4.145624999999992610e+01 8.855453778356309208e-73
4.166999999999993065e+01 9.106734315939283146e-73
4.188374999999993520e+01 7.212865294049368580e-73
4.209749999999993975e+01 2.722342642636195063e-73
4.231124999999991587e+01 -4.365300525873895686e-73
4.252499999999992042e+01 -1.341050423460731282e-72
4.273874999999992497e+01 -2.302499458409958505e-72
4.295249999999992951e+01 -3.110311829322830010e-72
4.316624999999993406e+01 -3.504222843300733665e-72
4.337999999999993861e+01 -3.217401367752233674e-72
4.359374999999991473e+01 -2.038539175364960982e-72
4.380749999999991928e+01 1.147341891927531250e-73
4.402124999999992383e+01 3.124489989776755049e-72
4.423499999999992838e+01 6.621253461180112198e-72
4.444874999999993292e+01 9.972993791083972924e-72
4.466249999999993747e+01 1.233242451617532941e-71
4.487624999999991360e+01 1.275350190427475277e-71
4.508999999999991815e+01 1.037554171082044436e-71
4.530374999999992269e+01 4.656720745442414925e-72
4.551749999999992724e+01 -4.379606476841036376e-72
4.573124999999993179e+01 -1.593856733000301239e-71
4.594499999999993634e+01 -2.834969567858565410e-71
4.615874999999991246e+01 -3.912560588191076868e-71
4.637249999999991701e+01 -4.522737156748561668e-71
4.658624999999992156e+01 -4.354825546396996947e-71
4.679999999999992610e+01 -3.158168853937818803e-71
4.701374999999993065e+01 -8.186475309565945501e-72
4.722749999999993520e+01 2.568796774410355110e-71
4.744124999999993975e+01 6.648861084845973981e-71
4.765499999999991587e+01 1.079377547545412455e-70
4.786874999999992042e+01 1.414535946713007522e-70
4.808249999999992497e+01 1.571905642651773594e-70
4.829624999999992951e+01 1.456689941798549224e-70
4.850999999999993406e+01 9.983185029799840136e-71
4.872374999999993861e+01 1.723414242473578420e-71
4.893749999999991473e+01 -9.803368058560805153e-71
4.915124999999991928e+01 -2.341349254347055586e-70
4.936499999999992383e+01 -3.714045884919622151e-70
4.957874999999992838e+01 -4.836946405394947551e-70
4.979249999999993292e+01 -5.412495980900577117e-70
5.000624999999993747e+01 -5.149691112356342045e-70
5.021999999999991360e+01 -3.816596933298852978e-70
5.043374999999991815e+01 -1.296622701813356127e-70
5.064749999999992269e+01 2.358936538227228210e-70
5.086124999999992724e+01 6.889943391263842804e-70
5.107499999999993179e+01 1.180534228358205010e-69
5.128874999999993634e+01 1.638616550484759916e-69
5.150249999999991246e+01 1.971874040997611344e-69
5.171624999999991701e+01 2.076263778875594105e-69
5.192999999999992156e+01 1.845793369495552605e-69
5.214374999999992610e+01 1.187641672880440219e-69
5.235749999999993065e+01 4.200066219002863899e-71
5.257124999999993520e+01 -1.593535884027820025e-69
5.278499999999991132e+01 -3.636323789567520397e-69
5.299874999999991587e+01 -5.890950263867587205e-69
5.321249999999992042e+01 -8.027312217877801006e-69
5.342624999999992497e+01 -9.573454173315662010e-69
5.363999999999992951e+01 -9.934861482904540661e-69
5.385374999999993406e+01 -8.453044425028187529e-69
5.406749999999991019e+01 -4.514260088817616309e-69
5.428124999999991473e+01 2.287421723265393401e-69
5.449499999999991928e+01 1.194080476579590653e-68
5.470874999999992383e+01 2.378793426566965777e-68
5.492249999999992838e+01 3.632154257969256654e-68
5.513624999999993292e+01 4.707796893860438149e-68
5.534999999999990905e+01 5.270816676542551570e-68
5.556374999999991360e+01 4.930894133114972970e-68
5.577749999999991815e+01 3.307332984164417247e-68
5.599124999999992269e+01 1.267013089844643640e-69
5.620499999999992724e+01 -4.654439764703984994e-68
5.641874999999993179e+01 -1.071980319447626960e-67
5.663249999999990791e+01 -1.728603999599493162e-67
5.684624999999991246e+01 -2.305663142548606786e-67
5.705999999999991701e+01 -2.627992639981456800e-67
5.727374999999992156e+01 -2.494922836952870683e-67
5.748749999999992610e+01 -1.716552867541367989e-67
5.770124999999993065e+01 -1.652356040022781199e-68
5.791499999999990678e+01 2.163139556096166221e-67
5.812874999999991132e+01 5.088567575105784629e-67
5.834249999999991587e+01 8.202414387749328423e-67
5.855624999999992042e+01 1.085762194888523875e-66
5.876999999999992497e+01 1.221243895384791585e-66
5.898374999999992951e+01 1.134201001244236475e-66
5.919749999999990564e+01 7.422044884718118801e-67
5.941124999999991019e+01 -2.700828751294015386e-69
5.962499999999991473e+01 -1.086699666963745670e-66
5.983874999999991928e+01 -2.409345324576943113e-66
6.005249999999992383e+01 -3.768253178770995365e-66
6.026624999999992838e+01 -4.861336517305761612e-66
6.047999999999990450e+01 -5.313881302237003109e-66
6.069374999999990905e+01 -4.734988176558661723e-66
6.090749999999991360e+01 -2.802831195890397355e-66
6.112124999999991815e+01 6.289784647777453964e-67
6.133499999999992269e+01 5.420047602165981554e-66
6.154874999999992724e+01 1.105117155778450490e-65
6.176249999999993179e+01 1.658178441776958485e-65
6.197624999999990791e+01 2.068822781640041023e-65
6.218999999999991246e+01 2.180839113695943956e-65
6.240374999999991701e+01 1.840397285305970652e-65
6.261749999999992156e+01 9.328618125194561965e-66
6.283124999999992610e+01 -5.739678077325973184e-66
6.304499999999993065e+01 -2.587604451357235209e-65
6.325874999999990678e+01 -4.859884998252852630e-65
6.347249999999991132e+01 -6.979159117891340040e-65
6.368624999999991587e+01 -8.397089493474959945e-65
6.389999999999992042e+01 -8.498150045956286442e-65
6.411374999999992497e+01 -6.713303975928949455e-65
6.432749999999992951e+01 -2.669699203627665134e-65
6.454124999999990564e+01 3.643449244073368180e-65
6.475499999999991019e+01 1.172441550819637390e-64
6.496874999999991473e+01 2.046481834935739852e-64
6.518249999999991928e+01 2.815614360417238082e-64
6.539624999999992383e+01 3.263597963408117802e-64
6.560999999999992838e+01 3.159657112348656907e-64
6.582374999999990450e+01 2.305011100429631933e-64
6.603749999999990905e+01 5.907097488090935567e-65
6.625124999999991360e+01 -1.941907169190669129e-64
6.646499999999991815e+01 -5.050839967529301324e-64
6.667874999999992269e+01 -8.268571389464902283e-64
6.689249999999992724e+01 -1.091839608472939751e-63
6.710624999999990337e+01 -1.218439007969626407e-63
6.731999999999990791e+01 -1.124016142576212340e-63
6.753374999999991246e+01 -7.430202630875262821e-64
6.774749999999991701e+01 -4.833632768310013056e-65
6.796124999999992156e+01 9.277219867931668798e-64
6.817499999999992610e+01 2.077634768541637989e-63
6.838874999999990223e+01 3.213667599599447328e-63
6.860249999999990678e+01 4.078889068101946842e-63
6.881624999999991132e+01 4.377873671443280130e-63
6.902999999999991587e+01 3.827720119502322167e-63
6.924374999999992042e+01 2.225694076745373011e-63
6.945749999999992497e+01 -4.753210259452053652e-64
6.967124999999990109e+01 -4.097459126122651948e-63
6.988499999999990564e+01 -8.192355076890395004e-63
7.009874999999991019e+01 -1.203857484460176912e-62
7.031249999999991473e+01 -1.469864704651312151e-62
7.052624999999991928e+01 -1.514526816609437222e-62
7.073999999999992383e+01 -1.245439809634456226e-62
7.095374999999989996e+01 -6.047222753315516687e-63
7.116749999999990450e+01 4.054573440448019787e-63
7.138124999999990905e+01 1.701184783006992383e-62
7.159499999999991360e+01 3.105144117370069313e-62
7.180874999999991815e+01 4.351258770790047006e-62
7.202249999999992269e+01 5.110559851555069358e-62
7.223624999999989882e+01 5.040307617751303134e-62
7.244999999999990337e+01 3.853983060488609052e-62
7.266374999999990791e+01 1.404290980978265770e-62
7.287749999999991246e+01 -2.234393253315883644e-62
7.309124999999991701e+01 -6.702458848519669302e-62
7.330499999999992156e+01 -1.133111068878560021e-61
7.351874999999989768e+01 -1.517745542359422691e-61
7.373249999999990223e+01 -1.713196763587459088e-61
7.394624999999990678e+01 -1.610050359198211670e-61
7.415999999999991132e+01 -1.124741608461924896e-61
7.437374999999991587e+01 -2.268161629129232754e-62
7.458749999999992042e+01 1.035780091134323084e-61
7.480124999999992497e+01 2.519595701735946521e-61
7.501499999999990109e+01 3.983346059579459768e-61
7.522874999999990564e+01 5.106019830141528927e-61
7.544249999999991019e+01 5.528571298289527304e-61
7.565624999999991473e+01 4.918287218948678862e-61
7.586999999999991928e+01 3.049650562336930731e-61
7.608374999999992383e+01 -1.102013784311091247e-62
7.629749999999989996e+01 -4.328409793297707718e-61
7.651124999999990450e+01 -9.065807886924592956e-61
7.672499999999990905e+01 -1.348867539097459823e-60
7.693874999999991360e+01 -1.654804789140975246e-60
7.715249999999991815e+01 -1.713225368982171775e-60
7.736624999999992269e+01 -1.428435222128097159e-60
7.757999999999989882e+01 -7.459255747863379209e-61
7.779374999999990337e+01 3.221745277198464121e-61
7.800749999999990791e+01 1.677488957380020795e-60
7.822124999999991246e+01 3.127804338773486177e-60
7.843499999999991701e+01 4.397120469035175240e-60
7.864874999999992156e+01 5.157003114436597694e-60
7.886249999999989768e+01 5.079499278135718137e-60
7.907624999999990223e+01 3.907298170665135092e-60
7.928999999999990678e+01 1.531680589492117841e-60
7.950374999999991132e+01 -1.935969831924911114e-60
7.971749999999991587e+01 -6.116558995145231262e-60
7.993124999999992042e+01 -1.035755043252320563e-59
8.014499999999989654e+01 -1.378385981537620366e-59
8.035874999999990109e+01 -1.541267259485278013e-59
8.057249999999990564e+01 -1.432805064209196562e-59
8.078624999999991019e+01 -9.896990660822053415e-60
8.099999999999991473e+01 -1.993816680920397480e-60
8.121374999999991928e+01 8.812546523243169774e-60
8.142749999999989541e+01 2.116030895188679456e-59
8.164124999999989996e+01 3.293471936830895677e-59
8.185499999999990450e+01 4.148108942263026494e-59
8.206874999999990905e+01 4.399965886996310545e-59
8.228249999999991360e+01 3.809466558624462064e-59
8.249624999999991815e+01 2.240819377382907714e-59
8.270999999999989427e+01 -2.770503110010035923e-60
8.292374999999989882e+01 -3.505824141405795342e-59
8.313749999999990337e+01 -6.983964269474670293e-59
8.335124999999990791e+01 -1.005621748045316270e-58
8.356499999999991246e+01 -1.195347293346215497e-58
8.377874999999991701e+01 -1.192133897306016404e-58
8.399249999999989313e+01 -9.384832082535427085e-59
8.420624999999989768e+01 -4.124944539830686605e-59
8.441999999999990223e+01 3.567109184426944930e-59
8.463374999999990678e+01 1.279780812718026678e-58
8.484749999999991132e+01 2.208001326973015811e-58
8.506124999999991587e+01 2.947110329091912070e-58
8.527499999999989200e+01 3.285008289821219226e-58
8.548874999999989654e+01 3.031616273247216814e-58
8.570249999999990109e+01 2.065985922829565107e-58
8.591624999999990564e+01 3.827251567095507314e-59
8.612999999999991019e+01 -1.872443938807276477e-58
8.634374999999991473e+01 -4.388904600524066884e-58
8.655749999999989086e+01 -6.708638966314434250e-58
8.677124999999989541e+01 -8.280599752222369436e-58
8.698499999999989996e+01 -8.551285665980441780e-58
8.719874999999990450e+01 -7.082822515312377622e-58
8.741249999999990905e+01 -3.681295756560286432e-58
8.762624999999991360e+01 1.489313838481923326e-58
8.783999999999991815e+01 7.836517696850639771e-58
8.805374999999989427e+01 1.434025139326448972e-57
8.826749999999989882e+01 1.964653619710880596e-57
8.848124999999990337e+01 2.226130855148856917e-57
8.869499999999990791e+01 2.083236137845138721e-57
8.890874999999991246e+01 1.448460063472862575e-57
8.912249999999991701e+01 3.151794464243001441e-58
8.933624999999989313e+01 -1.216832052014307645e-57
8.954999999999989768e+01 -2.931404594699659076e-57
8.976374999999990223e+01 -4.508319980443286615e-57
8.997749999999990678e+01 -5.562040458974922838e-57
9.019124999999991132e+01 -5.706327974114660399e-57
9.040499999999991587e+01 -4.638479203183966960e-57
9.061874999999989200e+01 -2.230733959175337907e-57
9.083249999999989654e+01 1.388913439565215557e-57
9.104624999999990109e+01 5.787347316386943120e-57
9.125999999999990564e+01 1.022873256866014005e-56
9.147374999999991019e+01 1.374390899189013487e-56
9.168749999999991473e+01 1.527204239684220316e-56
9.190124999999989086e+01 1.386566501409000481e-56
9.211499999999989541e+01 8.933729622380515701e-57
9.232874999999989996e+01 4.812724142784862417e-58
9.254249999999990450e+01 -1.070765446076957658e-56
9.275624999999990905e+01 -2.300112940128900784e-56
9.296999999999991360e+01 -3.401474025666595624e-56
9.318374999999988972e+01 -4.090108836204931983e-56
9.339749999999989427e+01 -4.083037443415618929e-56
9.361124999999989882e+01 -3.161664836834358198e-56
9.382499999999990337e+01 -1.239874163171740246e-56
9.403874999999990791e+01 1.575501615626649977e-56
9.425249999999991246e+01 4.947315612230762636e-56
9.446624999999988859e+01 8.309134465669239576e-56
9.467999999999989313e+01 1.091639013259402931e-55
9.489374999999989768e+01 1.195222469709170278e-55
9.510749999999990223e+01 1.068224764233636570e-55
9.532124999999990678e+01 6.640127702543189131e-56
9.553499999999991132e+01 -1.862758974288528237e-57
9.574874999999988745e+01 -9.208047571263397172e-56
9.596249999999989200e+01 -1.917136992217874160e-55
9.617624999999989654e+01 -2.821630548210395802e-55
9.638999999999990109e+01 -3.408396936261314871e-55
9.660374999999990564e+01 -3.447428710903908044e-55
9.681749999999991019e+01 -2.752524754230929194e-55
9.703124999999988631e+01 -1.234980750078098450e-55
9.724499999999989086e+01 1.046535264850732044e-55
9.745874999999989541e+01 3.851661411901065679e-55
9.767249999999989996e+01 6.751666834152458245e-55
9.788624999999990450e+01 9.160438793540063087e-55
9.809999999999990905e+01 1.040833740302814011e-54
9.831374999999988518e+01 9.856752625904771017e-55
9.852749999999988972e+01 7.042026247193822770e-55
9.874124999999989427e+01 1.827790392080466225e-55
9.895499999999989882e+01 -5.463413577597668071e-55
9.916874999999990337e+01 -1.397300907961079174e-54
9.938249999999990791e+01 -2.231657963900837341e-54
9.959624999999988404e+01 -2.870619881615974977e-54
9.980999999999988859e+01 -3.119414539618392378e-54
1.000237499999998931e+02 -2.802507599880107066e-54
1.002374999999998977e+02 -1.805749987885780735e-54
1.004512499999999022e+02 -1.189285002774469444e-55
1.006649999999999068e+02 2.129870491016596036e-54
1.008787499999998829e+02 4.657603573889943604e-54
1.010924999999998875e+02 7.036106670097305958e-54
1.013062499999998920e+02 8.734474427628284329e-54
1.015199999999998965e+02 9.195246315195488531e-54
1.017337499999999011e+02 7.939192997083041961e-54
1.019474999999999056e+02 4.686151663665646137e-54
1.021612499999999102e+02 -5.276364819813836874e-55
1.023749999999998863e+02 -7.260366809737953954e-54
1.025887499999998909e+02 -1.463006102391716317e-53
1.028024999999998954e+02 -2.135777491541213308e-53
1.030162499999999000e+02 -2.590321420961467031e-53
1.032299999999999045e+02 -2.669319844268234832e-53
1.034437499999999091e+02 -2.242501968754561463e-53
1.036574999999998852e+02 -1.240653746549558991e-53
1.038712499999998897e+02 3.123672734909634051e-54
1.040849999999998943e+02 2.276547473734051021e-53
1.042987499999998988e+02 4.388760744172265279e-53
1.045124999999999034e+02 6.278051878389269499e-53
1.047262499999999079e+02 7.506664022852280358e-53
1.049399999999998840e+02 7.636262148436268086e-53
1.051537499999998886e+02 6.313691171327459097e-53
1.053674999999998931e+02 3.365134661745449432e-53
1.055812499999998977e+02 -1.117320213063142077e-53
1.057949999999999022e+02 -6.715826616183137988e-53
1.060087499999999068e+02 -1.267302181451554236e-52
1.062224999999998829e+02 -1.794033169817121405e-52
1.064362499999998875e+02 -2.129678086731430467e-52
1.066499999999998920e+02 -2.153546067593080979e-52
1.068637499999998965e+02 -1.770087034390587522e-52
1.070774999999999011e+02 -9.345726243499358541e-53
1.072912499999999056e+02 3.236825860125142925e-53
1.075049999999998818e+02 1.885736266991768195e-52
1.077187499999998863e+02 3.540233666061573145e-52
1.079324999999998909e+02 4.997574989866537867e-52
1.081462499999998954e+02 5.923093342166244962e-52
1.083599999999999000e+02 5.988229498342957324e-52
1.085737499999999045e+02 4.934958064035692439e-52
1.087874999999998806e+02 2.644862054941785413e-52
1.090012499999998852e+02 -7.990261276392281250e-53
1.092149999999998897e+02 -5.071413809548115278e-52
1.094287499999998943e+02 -9.598573732140233274e-52
1.096424999999998988e+02 -1.359757880680830887e-51
1.098562499999999034e+02 -1.616605840705722893e-51
1.100699999999998795e+02 -1.641940937848195275e-51
1.102837499999998840e+02 -1.366256520813172252e-51
1.104974999999998886e+02 -7.573363442193374354e-52
1.107112499999998931e+02 1.633902674088670119e-52
1.109249999999998977e+02 1.310097375655613763e-51
1.111387499999999022e+02 2.530965917244415438e-51
1.113524999999998784e+02 3.618531661636450415e-51
1.115662499999998829e+02 4.333277436751890885e-51
1.117799999999998875e+02 4.439634764355739678e-51
1.119937499999998920e+02 3.751009899809217180e-51
1.122074999999998965e+02 2.177851505230804502e-51
1.124212499999999011e+02 -2.293939971046986543e-52
1.126349999999998772e+02 -3.251818408277230986e-51
1.128487499999998818e+02 -6.497257628021013416e-51
1.130624999999998863e+02 -9.426380951841352688e-51
1.132762499999998909e+02 -1.141304915133851962e-50
1.134899999999998954e+02 -1.183685841175331084e-50
1.137037499999999000e+02 -1.019926558583363450e-50
1.139174999999998761e+02 -6.248051082625106844e-51
1.141312499999998806e+02 -8.932029068053797014e-53
1.143449999999998852e+02 7.736915057003322250e-51
1.145587499999998897e+02 1.624108942134916567e-50
1.147724999999998943e+02 2.404698108001267374e-50
1.149862499999998988e+02 2.954215566989279548e-50
1.151999999999998749e+02 3.111119383140773927e-50
1.154137499999998795e+02 2.743049040712140147e-50
1.156274999999998840e+02 1.778660919963442437e-50
1.158412499999998886e+02 2.366019571920070197e-51
1.160549999999998931e+02 -1.754419233327808224e-50
1.162687499999998977e+02 -3.950432736111040009e-50
1.164824999999999022e+02 -6.006665742334219563e-50
1.166962499999998784e+02 -7.514085625053548155e-50
1.169099999999998829e+02 -8.057048750182741296e-50
1.171237499999998875e+02 -7.286981226049778292e-50
1.173374999999998920e+02 -5.002805966729432534e-50
1.175512499999998965e+02 -1.225239680714032762e-50
1.177649999999999011e+02 3.750075701972450099e-50
1.179787499999998772e+02 9.335616513791516391e-50
1.181924999999998818e+02 1.468344868585532581e-49
1.184062499999998863e+02 1.877170790615482644e-49
1.186199999999998909e+02 2.054437978657240348e-49
1.188337499999998954e+02 1.909261047474145686e-49
1.190474999999999000e+02 1.385532504438167875e-49
1.192612499999998761e+02 4.807877843086470460e-50
1.194749999999998806e+02 -7.398210448221232184e-50
1.196887499999998852e+02 -2.138179631375401006e-49
1.199024999999998897e+02 -3.509610225267838313e-49
1.201162499999998943e+02 -4.602796671270021526e-49
1.203299999999998988e+02 -5.153031241714457148e-49
1.205437499999998749e+02 -4.926138867085703204e-49
1.207574999999998795e+02 -3.767866443950419143e-49
1.209712499999998840e+02 -1.651258966425361983e-49
1.211849999999998886e+02 1.286939185101352310e-49
1.213987499999998931e+02 4.730062792339336409e-49
1.216124999999998977e+02 8.193345616173479174e-49
1.218262499999998738e+02 1.106856553614109187e-48
1.220399999999998784e+02 1.270161565792002805e-48
1.222537499999998829e+02 1.249725874353359660e-48
1.224674999999998875e+02 1.003908079800073692e-48
1.226812499999998920e+02 5.207037016841077182e-49
1.228949999999998965e+02 -1.728868039849885016e-49
1.231087499999998727e+02 -1.006118981118633270e-48
1.233224999999998772e+02 -1.866357792860168664e-48
1.235362499999998818e+02 -2.608791954063013428e-48
1.237499999999998863e+02 -3.074189720320797439e-48
1.239637499999998909e+02 -3.113494983937421329e-48
1.241774999999998954e+02 -2.616561957427358853e-48
1.243912499999998715e+02 -1.540945159532591987e-48
1.246049999999998761e+02 6.432760483960639961e-50
1.248187499999998806e+02 2.045398991563706429e-48
1.250324999999998852e+02 4.145492366044946057e-48
1.252462499999998897e+02 6.025399558471904770e-48
1.254599999999998943e+02 7.303366848513091319e-48
1.256737499999998704e+02 7.611972807336974359e-48
1.258874999999998749e+02 6.666023686291924936e-48
1.261012499999998795e+02 4.332133154976329036e-48
1.263149999999998840e+02 6.881461055727063009e-49
1.265287499999998886e+02 -3.940445332923516875e-48
1.267424999999998931e+02 -8.978930462769639892e-48
1.269562499999998693e+02 -1.364515079191876776e-47