2.024999999999579359e-01 -2.195705060091171380e-109
4.162499999999482725e-01 -2.715905877737665319e-109
6.299999999999528200e-01 -2.583992275214384211e-109
8.437499999999573674e-01 -1.209746345052377654e-109
1.057499999999947704e+00 2.043866363873042036e-109
1.271249999999952252e+00 7.632328081887048218e-109
1.484999999999956799e+00 1.545700404927764256e-108
1.698749999999947136e+00 2.436909723557123616e-108
1.912499999999951683e+00 3.164376392358399356e-108
2.126249999999956231e+00 3.262032590685241821e-108
2.339999999999946567e+00 2.082013913028376778e-108
2.553749999999951115e+00 -1.105418995233979096e-108
2.767499999999955662e+00 -6.882715975174880115e-108
2.981249999999945999e+00 -1.530148342726189284e-107
3.194999999999950546e+00 -2.536083310475505936e-107
3.408749999999955094e+00 -3.443696477187024025e-107
3.622499999999945430e+00 -3.785641209140014508e-107
3.836249999999949978e+00 -2.892299952273517051e-107
4.049999999999954525e+00 1.950342112905733388e-109
4.263749999999944862e+00 5.629535132702158962e-107
4.477499999999949409e+00 1.414107258999828166e-106
4.691249999999953957e+00 2.476267786261177649e-106
4.904999999999944293e+00 3.512499071375321083e-106
5.118749999999948841e+00 4.081110304322104206e-106
5.332499999999953388e+00 3.529249799179560801e-106
5.546249999999943725e+00 1.065824604596601054e-106
5.759999999999948272e+00 -4.045110956076771906e-106
5.973749999999952820e+00 -1.214143331930451161e-105
6.187499999999943157e+00 -2.267571073075582733e-105
6.401249999999947704e+00 -3.365090884662501549e-105
6.614999999999952252e+00 -4.113539023707247175e-105
6.828749999999942588e+00 -3.911760816784340026e-105
7.042499999999947136e+00 -2.005160938701761182e-105
7.256249999999951683e+00 2.352523013679831624e-105
7.469999999999942020e+00 9.601404339084866631e-105
7.683749999999946567e+00 1.944124079923308692e-104
7.897499999999951115e+00 3.031313766001340013e-104
8.111249999999941451e+00 3.892612141082216742e-104
8.324999999999945999e+00 4.004864188561124100e-104
8.538749999999950546e+00 2.686753278178992584e-104
8.752499999999940883e+00 -7.747930024906975455e-105
8.966249999999945430e+00 -6.880388965388951525e-104
9.179999999999949978e+00 -1.555103417399347994e-103
9.393749999999940314e+00 -2.567516119179305542e-103
9.607499999999944862e+00 -3.466983483515269282e-103
9.821249999999949409e+00 -3.823236825202109383e-103
1.003499999999993975e+01 -3.053076670692166613e-103
1.024874999999994429e+01 -5.119096223416990076e-104
1.046249999999994884e+01 4.317449951447224471e-103
1.067624999999993918e+01 1.153002729616659730e-102
1.088999999999994373e+01 2.042142316321314600e-102
1.110374999999994827e+01 2.910051698139631356e-102
1.131749999999993861e+01 3.422592873530334551e-102
1.153124999999994316e+01 3.106086380259623992e-102
1.174499999999994770e+01 1.407880144528566000e-102
1.195874999999993804e+01 -2.166433247597704051e-102
1.217249999999994259e+01 -7.828375048395441701e-102
1.238624999999994714e+01 -1.520680181837402076e-101
1.259999999999993747e+01 -2.302181322076970477e-101
1.281374999999994202e+01 -2.882847603909847793e-101
1.302749999999994657e+01 -2.897596486408027604e-101
1.324124999999995111e+01 -1.896342690392270000e-101
1.345499999999994145e+01 5.627320436566870694e-102
1.366874999999994600e+01 4.750788199666999205e-101
1.388249999999995055e+01 1.054098173405058824e-100
1.409624999999994088e+01 1.714630559726370383e-100
1.430999999999994543e+01 2.288784776830585877e-100
1.452374999999994998e+01 2.509748361344554326e-100
1.473749999999994031e+01 2.029079731957902924e-100
1.495124999999994486e+01 4.754523897263825991e-101
1.516499999999994941e+01 -2.434228047173396461e-100
1.537874999999993975e+01 -6.730310825288503091e-100
1.559249999999994429e+01 -1.198908962582802984e-99
1.580624999999994884e+01 -1.713630780523282782e-99
1.601999999999993918e+01 -2.032639331748596379e-99
1.623374999999994373e+01 -1.899507193776421483e-99
1.644749999999994827e+01 -1.019617328411924047e-99
1.666124999999993861e+01 8.681397466157976470e-100
1.687499999999994316e+01 3.877887688323987439e-99
1.708874999999994770e+01 7.829125058189292533e-99
1.730249999999993804e+01 1.208968350933482867e-98
1.751624999999994259e+01 1.545534082132582276e-98
1.772999999999994714e+01 1.613345568551532947e-98
1.794374999999993747e+01 1.191215362080088718e-98
1.815749999999994202e+01 5.936785509151868606e-100
1.837124999999994657e+01 -1.926083670178942236e-98
1.858499999999993690e+01 -4.729777020660691551e-98
1.879874999999994145e+01 -8.018388013065491083e-98
1.901249999999994600e+01 -1.105497441765208236e-97
1.922624999999993634e+01 -1.265090989109778270e-97
1.943999999999994088e+01 -1.123283310896157718e-97
1.965374999999994543e+01 -5.085104911046049393e-98
1.986749999999993577e+01 7.186522871104214242e-98
2.008124999999994031e+01 2.596479346833607516e-97
2.029499999999994486e+01 4.977017625067826635e-97
2.050874999999993520e+01 7.441502252149731779e-97
2.072249999999993975e+01 9.244421511576627739e-97
2.093624999999994429e+01 9.324927226298590518e-97
2.114999999999993463e+01 6.429545862628244544e-97
2.136374999999993918e+01 -6.153250893212147650e-98
2.157749999999994373e+01 -1.246459679982359333e-96
2.179124999999993406e+01 -2.867558023192466855e-96
2.200499999999993861e+01 -4.707937972498025901e-96
2.221874999999994316e+01 -6.327243759587982401e-96
2.243249999999993349e+01 -7.047750496268818690e-96
2.264624999999993804e+01 -6.007672998474252427e-96
2.285999999999994259e+01 -2.311147604381080116e-96
2.307374999999993292e+01 4.706602363267782727e-96
2.328749999999993747e+01 1.510493802199708218e-95
2.350124999999994202e+01 2.789982154772089860e-95
2.371499999999993236e+01 4.065957994898230400e-95
2.392874999999993690e+01 4.928778333641850134e-95
2.414249999999994145e+01 4.819129018191583677e-95
2.435624999999993179e+01 3.104276318965165227e-95
2.456999999999993634e+01 -7.701599123388226346e-96
2.478374999999994088e+01 -7.050163377014091943e-95
2.499749999999993122e+01 -1.538549195397209860e-94
2.521124999999993577e+01 -2.453688535022455165e-94
2.542499999999994031e+01 -3.216831520545537475e-94
2.563874999999993065e+01 -3.484761986169573264e-94
2.585249999999993520e+01 -2.839510056685096446e-94
2.606624999999993975e+01 -8.702184613903560741e-95
2.627999999999994429e+01 2.692575119632682757e-94
2.649374999999993463e+01 7.797867266505099588e-94
2.670749999999993918e+01 1.387719966998471130e-93
2.692124999999994373e+01 1.968004009079844355e-93
2.713499999999993406e+01 2.321472367261818523e-93
2.734874999999993861e+01 2.188292980623623276e-93
2.756249999999994316e+01 1.289235423495959968e-93
2.777624999999993349e+01 -5.999922375276111004e-94
2.798999999999993804e+01 -3.543045347097136339e-93
2.820374999999994259e+01 -7.318524094058743737e-93
2.841749999999993292e+01 -1.130350839206759148e-92
2.863124999999993747e+01 -1.440644376105207154e-92
2.884499999999994202e+01 -1.510201845570406792e-92
2.905874999999993236e+01 -1.162269050458097246e-92
2.927249999999993690e+01 -2.347806665172592212e-93
2.948624999999994145e+01 1.360391988787491134e-92
2.969999999999993179e+01 3.563208762119639465e-92
2.991374999999993634e+01 6.089615000858661019e-92
3.012749999999994088e+01 8.376393993361506101e-92
3.034124999999993122e+01 9.576701223707096480e-92
3.055499999999993577e+01 8.639503365070712107e-92
3.076874999999994031e+01 4.501187109952254402e-92
3.098249999999993065e+01 -3.599122240216072020e-92
3.119624999999993520e+01 -1.569963866477414355e-91
3.140999999999993975e+01 -3.065426342061787100e-91
3.162374999999993008e+01 -4.574364516203480794e-91
3.183749999999993463e+01 -5.652179092686772127e-91
3.205124999999993918e+01 -5.708958334176039166e-91
3.226499999999992951e+01 -4.097437799700191802e-91
3.247874999999993406e+01 -2.720917701663696840e-92
3.269249999999993861e+01 5.985191307554794444e-91
3.290624999999992895e+01 1.430022322949986014e-90
3.311999999999993349e+01 2.345814839275312820e-90
3.333374999999993804e+01 3.125596921242333312e-90
3.354749999999992838e+01 3.456082488317777853e-90
3.376124999999993292e+01 2.968017196623121016e-90
3.397499999999993747e+01 1.312028828304016715e-90
3.418874999999992781e+01 -1.726072690377589830e-90
3.440249999999993236e+01 -6.081302761317487599e-90
3.461624999999993690e+01 -1.126246912596547531e-89
3.482999999999992724e+01 -1.624379834370686202e-89
3.504374999999993179e+01 -1.945002497177001713e-89
3.525749999999993634e+01 -1.889429248252356816e-89
3.547124999999992667e+01 -1.251786619756710570e-89
3.568499999999993122e+01 1.250181499082568626e-90
3.589874999999993577e+01 2.274925272014437252e-89
3.611249999999992610e+01 5.027026088687750213e-89
3.632624999999993065e+01 7.936173693896150757e-89
3.653999999999993520e+01 1.025325260936313977e-88
3.675374999999992554e+01 1.096660744075183006e-88
3.696749999999993008e+01 8.943450175720379044e-89
3.718124999999993463e+01 3.187452194043500998e-89
3.739499999999992497e+01 -6.795780132978849037e-89
3.760874999999992951e+01 -2.056964392203213428e-88
3.782249999999993406e+01 -3.636169512261109150e-88
3.803624999999993861e+01 -5.081343465017475075e-88
3.824999999999994316e+01 -5.904400511449276450e-88
3.846374999999991928e+01 -5.518615251931610282e-88
3.867749999999992383e+01 -3.350572880498979104e-88
3.889124999999992838e+01 9.889333345989398640e-89
3.910499999999993292e+01 7.491026347368663216e-88
3.931874999999993747e+01 1.552902599058285625e-87
3.953249999999994202e+01 2.369225659836406796e-87
3.974624999999991815e+01 2.975027719739991489e-87
3.995999999999992269e+01 3.082964533099913367e-87
4.017374999999992724e+01 2.387000473057109320e-87
4.038749999999993179e+01 6.383589456289231872e-88
4.060124999999993634e+01 -2.253058307657258805e-87
4.081499999999994088e+01 -6.106515281871251680e-87
4.102874999999991701e+01 -1.037331551351588297e-86
4.124249999999992156e+01 -1.409018809533705213e-86
4.145624999999992610e+01 -1.592360801287035746e-86
4.166999999999993065e+01 -1.434167617730477859e-86
4.188374999999993520e+01 -7.934044656066806140e-87
4.209749999999993975e+01 4.130155576370967075e-87
4.231124999999991587e+01 2.156042029535649759e-86
4.252499999999992042e+01 4.242530253071277288e-86
4.273874999999992497e+01 6.281170058243723524e-86
4.295249999999992951e+01 7.685263155223723191e-86
4.316624999999993406e+01 7.731078150141944413e-86
4.337999999999993861e+01 5.684938974299794165e-86
4.359374999999991473e+01 1.000045206575065576e-86
4.380749999999991928e+01 -6.434774633019086947e-86
4.402124999999992383e+01 -1.603584827076582080e-85
4.423499999999992838e+01 -2.632096443834888221e-85
4.444874999999993292e+01 -3.484616360548929044e-85
4.466249999999993747e+01 -3.837332876253458769e-85
4.487624999999991360e+01 -3.334208821450528862e-85
4.508999999999991815e+01 -1.667383669638553268e-85
4.530374999999992269e+01 1.314115204570361020e-85
4.551749999999992724e+01 5.482527540421341317e-85
4.573124999999993179e+01 1.032291498454602156e-84
4.594499999999993634e+01 1.487452500159242355e-84
4.615874999999991246e+01 1.776330491562958122e-84
4.637249999999991701e+01 1.736303990706308835e-84
4.658624999999992156e+01 1.210653745671107013e-84
4.679999999999992610e+01 9.382952639294033763e-86
4.701374999999993065e+01 -1.614264465978505112e-84
4.722749999999993520e+01 -3.755117269963490660e-84
4.744124999999993975e+01 -5.974520599843751213e-84
4.765499999999991587e+01 -7.719579266822929342e-84
4.786874999999992042e+01 -8.287632279730329215e-84
4.808249999999992497e+01 -6.939730716652841349e-84
4.829624999999992951e+01 -3.080179986560575184e-84
4.850999999999993406e+01 3.513391062122429501e-84
4.872374999999993861e+01 1.244622017891512888e-83
4.893749999999991473e+01 2.250742134063851232e-83
4.915124999999991928e+01 3.159105656173664433e-83
4.936499999999992383e+01 3.681711927209614063e-83
4.957874999999992838e+01 3.491768921077673077e-83
4.979249999999993292e+01 2.291433342035546342e-83
5.000624999999993747e+01 -9.523400313686243861e-85
5.021999999999991360e+01 -3.616628186722861043e-83
5.043374999999991815e+01 -7.897234353044443812e-83
5.064749999999992269e+01 -1.218059234089232678e-82
5.086124999999992724e+01 -1.534560920357530050e-82
5.107499999999993179e+01 -1.602702493293462975e-82
5.128874999999993634e+01 -1.285788710582344353e-82
5.150249999999991246e+01 -4.828025692599351363e-83
5.171624999999991701e+01 8.281077559963209377e-83
5.192999999999992156e+01 2.546361755500680525e-82
5.214374999999992610e+01 4.417413007926925372e-82
5.235749999999993065e+01 6.026786645605674949e-82
5.257124999999993520e+01 6.833275474589790860e-82
5.278499999999991132e+01 6.250919406529103906e-82
5.299874999999991587e+01 3.781032461007316734e-82
5.321249999999992042e+01 -8.170505699112617237e-83
5.342624999999992497e+01 -7.343292735743371533e-82
5.363999999999992951e+01 -1.500468409854004340e-81
5.385374999999993406e+01 -2.234732335654904600e-81
5.406749999999991019e+01 -2.732953275450551025e-81
5.428124999999991473e+01 -2.758176689864582103e-81
5.449499999999991928e+01 -2.087110521439892016e-81
5.470874999999992383e+01 -5.742661179441190016e-82
5.492249999999992838e+01 1.774871173011686956e-81
5.513624999999993292e+01 4.736611220808064020e-81
5.534999999999990905e+01 7.827984295790394784e-81
5.556374999999991360e+01 1.031436257762789253e-80
5.577749999999991815e+01 1.128578617951890598e-80
5.599124999999992269e+01 9.813086070847960038e-81
5.620499999999992724e+01 5.179063403031990920e-81
5.641874999999993179e+01 -2.841716408431573981e-81
5.663249999999990791e+01 -1.370546121462605534e-80
5.684624999999991246e+01 -2.589710096170036848e-80
5.705999999999991701e+01 -3.688962621454180656e-80
5.727374999999992156e+01 -4.334696482488554761e-80
5.748749999999992610e+01 -4.162555733097459581e-80
5.770124999999993065e+01 -2.857644996037857089e-80
5.791499999999990678e+01 -2.572342501716576128e-81
5.812874999999991132e+01 3.540774014937564595e-80
5.834249999999991587e+01 8.089194826794769064e-80
5.855624999999992042e+01 1.255436221762560111e-79
5.876999999999992497e+01 1.576246963510808706e-79
5.898374999999992951e+01 1.635381683673289018e-79
5.919749999999990564e+01 1.305188619999652273e-79
5.941124999999991019e+01 5.027325264258867693e-80
5.962499999999991473e+01 -7.696403005930193239e-80
5.983874999999991928e+01 -2.388281774076714073e-79
6.005249999999992383e+01 -4.088059618195260310e-79
6.026624999999992838e+01 -5.470056210233467903e-79
6.047999999999990450e+01 -6.047122684297769322e-79
6.069374999999990905e+01 -5.331697390861838539e-79
6.090749999999991360e+01 -2.961187362176182976e-79
6.112124999999991815e+01 1.155584802310587763e-79
6.133499999999992269e+01 6.699912435803138724e-79
6.154874999999992724e+01 1.285208856673175048e-78
6.176249999999993179e+01 1.829147077771079800e-78
6.197624999999990791e+01 2.132644986784453018e-78
6.218999999999991246e+01 2.017562447456710897e-78
6.240374999999991701e+01 1.339105421128719911e-78
6.261749999999992156e+01 3.734556195592942607e-80
6.283124999999992610e+01 -1.811612752117124778e-78
6.304499999999993065e+01 -3.958323878058294847e-78
6.325874999999990678e+01 -5.972156129020012210e-78
6.347249999999991132e+01 -7.277411060856235549e-78
6.368624999999991587e+01 -7.242523732487610479e-78
6.389999999999992042e+01 -5.321394406073016711e-78
6.411374999999992497e+01 -1.231810173396793978e-78
6.432749999999992951e+01 4.860203138544439882e-78
6.454124999999990564e+01 1.219601688321060802e-77
6.475499999999991019e+01 1.937487070864529034e-77
6.496874999999991473e+01 2.445229153828016248e-77
6.518249999999991928e+01 2.522309553089641999e-77
6.539624999999992383e+01 1.969246436885249596e-77
6.560999999999992838e+01 6.690435920307970818e-78
6.582374999999990450e+01 -1.347168081461233867e-77
6.603749999999990905e+01 -3.845864892316767349e-77
6.625124999999991360e+01 -6.367420162176549104e-77
6.646499999999991815e+01 -8.252208469572476250e-77
6.667874999999992269e+01 -8.730804369530877417e-77
6.689249999999992724e+01 -7.081677939087038251e-77
6.710624999999990337e+01 -2.843371875298073458e-77
6.731999999999990791e+01 3.951838289057898315e-77
6.753374999999991246e+01 1.257559059908342712e-76
6.774749999999991701e+01 2.149946968289323258e-76
6.796124999999992156e+01 2.845917236566794332e-76
6.817499999999992610e+01 3.074192293213787330e-76
6.838874999999990223e+01 2.571679761664012716e-76
6.860249999999990678e+01 1.157177561531093981e-76
6.881624999999991132e+01 -1.184889555361184834e-76
6.902999999999991587e+01 -4.228570824591939187e-76
6.924374999999992042e+01 -7.461814067744293494e-76
6.945749999999992497e+01 -1.009854189184020859e-75
6.967124999999990109e+01 -1.116867227354678027e-75
6.988499999999990564e+01 -9.696008440020032854e-76
7.009874999999991019e+01 -4.955064109610642561e-76
7.031249999999991473e+01 3.226726496537889880e-76
7.052624999999991928e+01 1.418136300936764182e-75
7.073999999999992383e+01 2.620919201281515803e-75
7.095374999999989996e+01 3.657645052059932113e-75
7.116749999999990450e+01 4.178387747586183738e-75
7.138124999999990905e+01 3.815356837421468900e-75
7.159499999999991360e+01 2.271857179519964641e-75
7.180874999999991815e+01 -5.685806379803955351e-76
7.202249999999992269e+01 -4.532601156786658528e-75
7.223624999999989882e+01 -9.075265711388027980e-75
7.244999999999990337e+01 -1.325941654184521170e-74
7.266374999999990791e+01 -1.582795346884023898e-74
7.287749999999991246e+01 -1.539049390171527826e-74
7.309124999999991701e+01 -1.072564066978057064e-74
7.330499999999992156e+01 -1.170887209729404661e-75
7.351874999999989768e+01 1.296227673251272750e-74
7.373249999999990223e+01 3.004366379340650215e-74
7.394624999999990678e+01 4.696856578543671447e-74
7.415999999999991132e+01 5.931168949246250578e-74
7.437374999999991587e+01 6.188444524302779526e-74
7.458749999999992042e+01 4.972662001149095537e-74
7.480124999999992497e+01 1.946662858560984177e-74
7.501499999999990109e+01 -2.913652102674609568e-74
7.522874999999990564e+01 -9.178134910949397182e-74
7.544249999999991019e+01 -1.587529622708496882e-73
7.565624999999991473e+01 -2.150414230565704589e-73
7.586999999999991928e+01 -2.418388016579886175e-73
7.608374999999992383e+01 -2.196233591843902212e-73
7.629749999999989996e+01 -1.327309806495287886e-73
7.651124999999990450e+01 2.509784987906707369e-74
7.672499999999990905e+01 2.451631390319078651e-73
7.693874999999991360e+01 4.996154132720319495e-73
7.715249999999991815e+01 7.402372329010564166e-73
7.736624999999992269e+01 9.017367423875054538e-73
7.757999999999989882e+01 9.106216112405952467e-73
7.779374999999990337e+01 6.997931924329462357e-73
7.800749999999990791e+01 2.276572242472532955e-73
7.822124999999991246e+01 -5.010514811147004873e-73
7.843499999999991701e+01 -1.417100768568370862e-72
7.864874999999992156e+01 -2.376762177445538877e-72
7.886249999999989768e+01 -3.165761709204130951e-72
7.907624999999990223e+01 -3.521935582268585363e-72
7.928999999999990678e+01 -3.178756279274052234e-72
7.950374999999991132e+01 -1.927736770221729288e-72
7.971749999999991587e+01 3.076298588303061273e-73
7.993124999999992042e+01 3.399471783453580425e-72
8.014499999999989654e+01 6.962650164322667941e-72
8.035874999999990109e+01 1.034189625067297894e-71
8.057249999999990564e+01 1.265814754759136414e-71
8.078624999999991019e+01 1.292681013416668085e-71
8.099999999999991473e+01 1.024864216758893473e-71
8.121374999999991928e+01 4.056996256034866079e-72
8.142749999999989541e+01 -5.614636556142683305e-72
8.164124999999989996e+01 -1.789989625999695019e-71
8.185499999999990450e+01 -3.097028076134124696e-71
8.206874999999990905e+01 -4.208062680184349408e-71
8.228249999999991360e+01 -4.784756213730061102e-71
8.249624999999991815e+01 -4.478730226299182569e-71
8.270999999999989427e+01 -3.008876008160345044e-71
8.292374999999989882e+01 -2.533601905615252175e-72
8.313749999999990337e+01 3.659371661217334262e-71
8.335124999999990791e+01 8.282140589608385436e-71
8.356499999999991246e+01 1.282776811456665736e-70
8.377874999999991701e+01 1.621819790783582036e-70
8.399249999999989313e+01 1.721983836763342756e-70
8.420624999999989768e+01 1.466711620025318524e-70
8.441999999999990223e+01 7.756651986598006509e-71
8.463374999999990678e+01 -3.628502175766676378e-71
8.484749999999991132e+01 -1.862747725654232300e-70
8.506124999999991587e+01 -3.522233557592129030e-70
8.527499999999989200e+01 -5.025460798618527476e-70
8.548874999999989654e+01 -5.970815602974583402e-70
8.570249999999990109e+01 -5.929473885287635197e-70
8.591624999999990564e+01 -4.532341641609416491e-70
8.612999999999991019e+01 -1.576331636170677599e-70
8.634374999999991473e+01 2.866845610341452543e-70
8.655749999999989086e+01 8.363050080056176642e-70
8.677124999999989541e+01 1.407694724941915309e-69
8.698499999999989996e+01 1.880908207153369004e-69
8.719874999999990450e+01 2.112867170774348023e-69
8.741249999999990905e+01 1.960781360354231248e-69
8.762624999999991360e+01 1.314212885336724147e-69
8.783999999999991815e+01 1.317965930555831835e-70
8.805374999999989427e+01 -1.523877495055414234e-69
8.826749999999989882e+01 -3.461681942764621029e-69
8.848124999999990337e+01 -5.356926967197675111e-69
8.869499999999990791e+01 -6.774169441059961661e-69
8.890874999999991246e+01 -7.222954372616283815e-69
8.912249999999991701e+01 -6.246127436147713564e-69
8.933624999999989313e+01 -3.533008096702123114e-69
8.954999999999989768e+01 9.585729244253684299e-70
8.976374999999990223e+01 6.895091712613149392e-69
8.997749999999990678e+01 1.350397889989177599e-68
9.019124999999991132e+01 1.958381824704842543e-68
9.040499999999991587e+01 2.361229188004801556e-68
9.061874999999989200e+01 2.396326261812602237e-68
9.083249999999989654e+01 1.922453530319940054e-68
9.104624999999990109e+01 8.582811989796168427e-69
9.125999999999990564e+01 -7.784197950512157699e-69
9.147374999999991019e+01 -2.839137005366762542e-68
9.168749999999991473e+01 -5.030111627451930792e-68
9.190124999999989086e+01 -6.924184578607881393e-68
9.211499999999989541e+01 -8.005734484846771404e-68
9.232874999999989996e+01 -7.750648675449643261e-68
9.254249999999990450e+01 -5.736373934471237336e-68
9.275624999999990905e+01 -1.768869173628754233e-68
9.296999999999991360e+01 3.994958037442281870e-68
9.318374999999988972e+01 1.095723540741966348e-67
9.339749999999989427e+01 1.805216801828516894e-67
9.361124999999989882e+01 2.380988000146626011e-67
9.382499999999990337e+01 2.652896082368345162e-67
9.403874999999990791e+01 2.455857304749838395e-67
9.425249999999991246e+01 1.666789521464184474e-67
9.446624999999988859e+01 2.454418277421113120e-68
9.467999999999989313e+01 -1.728230532201744798e-67
9.489374999999989768e+01 -4.029269654030139844e-67
9.510749999999990223e+01 -6.285077310472855597e-67
9.532124999999990678e+01 -8.003100860241880292e-67
9.553499999999991132e+01 -8.633385794754882813e-67
9.574874999999988745e+01 -7.664730493897759200e-67
9.596249999999989200e+01 -4.745672519625452381e-67
9.617624999999989654e+01 1.866622503736140042e-68
9.638999999999990109e+01 6.794218025992073155e-67
9.660374999999990564e+01 1.427133360827402289e-66
9.681749999999991019e+01 2.135319097448384053e-66
9.703124999999988631e+01 2.642309505276260957e-66
9.724499999999989086e+01 2.772967128646035775e-66
9.745874999999989541e+01 2.370591473716728780e-66
9.767249999999989996e+01 1.335814336367216002e-66
9.788624999999990450e+01 -3.332322371564770414e-67
9.809999999999990905e+01 -2.507373932348935911e-66
9.831374999999988518e+01 -4.908651462096935626e-66
9.852749999999988972e+01 -7.117356743414309355e-66
9.874124999999989427e+01 -8.610719526028497720e-66
9.895499999999989882e+01 -8.835894728129641228e-66
9.916874999999990337e+01 -7.313734465180976157e-66
9.938249999999990791e+01 -3.762338641918534730e-66
9.959624999999988404e+01 1.778341414378993382e-66
9.980999999999988859e+01 8.846021110553706739e-66
1.000237499999998931e+02 1.650834523537533054e-65
1.002374999999998977e+02 2.339527623714472035e-65
1.004512499999999022e+02 2.783176895255434964e-65
1.006649999999999068e+02 2.807719234818355049e-65
1.008787499999998829e+02 2.265842208149782791e-65
1.010924999999998875e+02 1.076018427405187381e-65
1.013062499999998920e+02 -7.387460838720994207e-66
1.015199999999998965e+02 -3.020398954585249340e-65
1.017337499999999011e+02 -5.462489420618231252e-65
1.019474999999999056e+02 -7.622404265939135471e-65
1.021612499999999102e+02 -8.965261390830145592e-65
1.023749999999998863e+02 -8.941174895356958367e-65
1.025887499999998909e+02 -7.091465231254066480e-65
1.028024999999998954e+02 -3.172102097674512780e-65
1.030162499999999000e+02 2.724687432942254798e-65
1.032299999999999045e+02 1.007569461677459030e-64
1.034437499999999091e+02 1.788690135565340088e-64
1.036574999999998852e+02 2.473492128816707816e-64
1.038712499999998897e+02 2.890863966452617349e-64
1.040849999999998943e+02 2.865629409162731342e-64
1.042987499999998988e+02 2.252394792643217983e-64
1.045124999999999034e+02 9.748377780580616404e-65
1.047262499999999079e+02 -9.355843165757992931e-65
1.049399999999998840e+02 -3.309433695694856894e-64
1.051537499999998886e+02 -5.826495811453939441e-64
1.053674999999998931e+02 -8.028814898389272255e-64
1.055812499999998977e+02 -9.365689887390564596e-64
1.057949999999999022e+02 -9.272472349162200072e-64
1.060087499999999068e+02 -7.278911612079508207e-64
1.062224999999998829e+02 -3.135480859461759778e-64
1.064362499999998875e+02 3.061374189807940183e-64
1.066499999999998920e+02 1.077037717130386767e-63
1.068637499999998965e+02 1.896162982595838780e-63
1.070774999999999011e+02 2.615539006938112015e-63
1.072912499999999056e+02 3.056390040156526422e-63
1.075049999999998818e+02 3.034327383159299054e-63
1.077187499999998863e+02 2.394297860075715351e-63
1.079324999999998909e+02 1.051680399637847258e-63
1.081462499999998954e+02 -9.665420484107136918e-64
1.083599999999999000e+02 -3.488709908796200339e-63
1.085737499999999045e+02 -6.182891561746381032e-63
1.087874999999998806e+02 -8.567899729507045671e-63
1.090012499999998852e+02 -1.005791362223395896e-62
1.092149999999998897e+02 -1.004343128607513159e-62
1.094287499999998943e+02 -8.004988178347882739e-63
1.096424999999998988e+02 -3.648318832739687250e-63
1.098562499999999034e+02 2.958561084354691231e-63
1.100699999999998795e+02 1.127303862453579072e-62
1.102837499999998840e+02 2.022138210231970194e-62
1.104974999999998886e+02 2.822871716800882002e-62
1.107112499999998931e+02 3.335964481026484472e-62
1.109249999999998977e+02 3.357998453492627918e-62
1.111387499999999022e+02 2.712960233938298228e-62
1.113524999999998784e+02 1.297058977654954892e-62
1.115662499999998829e+02 -8.752484636915688994e-63
1.117799999999998875e+02 -3.632807501809022074e-62
1.119937499999998920e+02 -6.627231980176217568e-62
1.122074999999998965e+02 -9.340664926641910199e-62
1.124212499999999011e+02 -1.113018666315761042e-61
1.126349999999998772e+02 -1.131281583521544021e-61
1.128487499999998818e+02 -9.288306301495338655e-62
1.130624999999998863e+02 -4.688395222558625600e-62
1.132762499999998909e+02 2.468116067574371898e-62
1.134899999999998954e+02 1.164346292530855607e-61
1.137037499999999000e+02 2.170674142645106877e-61
1.139174999999998761e+02 3.095253910907560861e-61
1.141312499999998806e+02 3.724115523767956484e-61
1.143449999999998852e+02 3.827491344572641367e-61
1.145587499999998897e+02 3.200287807273875794e-61
1.147724999999998943e+02 1.711786328998829799e-61
1.149862499999998988e+02 -6.421506522474471492e-62
1.151999999999998749e+02 -3.693946509991763843e-61
1.154137499999998795e+02 -7.077759214555236766e-61
1.156274999999998840e+02 -1.023331931343421772e-60
1.158412499999998886e+02 -1.244999940096334067e-60
1.160549999999998931e+02 -1.295633392608140031e-60
1.162687499999998977e+02 -1.105292717284737971e-60
1.164824999999999022e+02 -6.277283889842031520e-61
1.166962499999998784e+02 1.421280794318514879e-61
1.169099999999998829e+02 1.152810522861221173e-60
1.171237499999998875e+02 2.286912005259332904e-60
1.173374999999998920e+02 3.361569018256880312e-60
1.175512499999998965e+02 4.142168536886111883e-60
1.177649999999999011e+02 4.371122456538868738e-60
1.179787499999998772e+02 3.811182931840637978e-60
1.181924999999998818e+02 2.299688100214326882e-60
1.184062499999998863e+02 -1.932980258788387514e-61
1.186199999999998909e+02 -3.513187551865139668e-60
1.188337499999998954e+02 -7.287905439511222364e-60
1.190474999999999000e+02 -1.092679329827855285e-59
1.192612499999998761e+02 -1.366253873954575877e-59
1.194749999999998806e+02 -1.464255048108764636e-59
1.196887499999998852e+02 -1.306856360580941558e-59
1.199024999999998897e+02 -8.373260547524725766e-60
1.201162499999998943e+02 -4.115192187299655736e-61
1.203299999999998988e+02 1.036662444923397886e-59
1.205437499999998749e+02 2.280177202591752773e-59
1.207574999999998795e+02 3.501227707554092649e-59
1.209712499999998840e+02 4.451959225649111390e-59
1.211849999999998886e+02 4.853389065663121929e-59
1.213987499999998931e+02 4.439774994412572764e-59
1.216124999999998977e+02 3.015370846059388826e-59
1.218262499999998738e+02 5.165539644280372835e-60
1.220399999999998784e+02 -2.931106896582515088e-59
1.222537499999998829e+02 -6.973774217328036410e-59
1.224674999999998875e+02 -1.102196909918192174e-58
1.226812499999998920e+02 -1.428695778370885660e-58
1.228949999999998965e+02 -1.586836413699689680e-58
1.231087499999998727e+02 -1.489289274889664738e-58
1.233224999999998772e+02 -1.069397280376998777e-58
1.235362499999998818e+02 -3.010726005408318440e-59
1.237499999999998863e+02 7.826272544076209568e-59
1.239637499999998909e+02 2.076312807437054734e-58
1.241774999999998954e+02 3.398820519364550597e-58
1.243912499999998715e+02 4.503397443118446102e-58
1.246049999999998761e+02 5.104007039211757805e-58
1.248187499999998806e+02 4.917920849064073254e-58
1.250324999999998852e+02 3.721638170035219397e-58
1.252462499999998897e+02 1.413613424657406334e-58
1.254599999999998943e+02 -1.926177876322212954e-58
1.256737499999998704e+02 -5.992428364436333390e-58
1.258874999999998749e+02 -1.024005889091538747e-57
1.261012499999998795e+02 -1.391146767283634095e-57
1.263149999999998840e+02 -1.611367592876639727e-57
1.265287499999998886e+02 -1.594654945278372763e-57