2.024999999999579359e-01 -1.496106131587277034e-114
4.162499999999482725e-01 -1.075871597081130798e-114
6.299999999999528200e-01 3.178144378232370846e-115
8.437499999999573674e-01 3.031965553622920476e-114
1.057499999999947704e+00 7.134802308255628036e-114
1.271249999999952252e+00 1.209179714145699579e-113
1.484999999999956799e+00 1.639746697400478109e-113
1.698749999999947136e+00 1.729488428239753285e-113
1.912499999999951683e+00 1.080783350745490895e-113
2.126249999999956231e+00 -7.609691882827873598e-114
2.339999999999946567e+00 -4.148679166389222094e-113
2.553749999999951115e+00 -9.061364291276901209e-113
2.767499999999955662e+00 -1.473244317879667334e-112
2.981249999999945999e+00 -1.925373827549198434e-112
3.194999999999950546e+00 -1.931739442440019359e-112
3.408749999999955094e+00 -1.035551359337531854e-112
3.622499999999945430e+00 1.258967091758451451e-112
3.836249999999949978e+00 5.294215018421446863e-112
4.049999999999954525e+00 1.094619447246911300e-111
4.263749999999944862e+00 1.721633491536184082e-111
4.477499999999949409e+00 2.182274236891720165e-111
4.691249999999953957e+00 2.097857313799142836e-111
4.904999999999944293e+00 9.643020692864449352e-112
5.118749999999948841e+00 -1.740733149403743311e-111
5.332499999999953388e+00 -6.337496327234009946e-111
5.546249999999943725e+00 -1.260061028287752200e-110
5.759999999999948272e+00 -1.932856280113461354e-110
5.973749999999952820e+00 -2.393650297272413759e-110
6.187499999999943157e+00 -2.227793359739880468e-110
6.401249999999947704e+00 -8.994848732053709101e-111
6.614999999999952252e+00 2.125475268378220689e-110
6.828749999999942588e+00 7.140224007537800747e-110
7.042499999999947136e+00 1.383603918289508494e-109
7.256249999999951683e+00 2.086486586480837823e-109
7.469999999999942020e+00 2.544557326125456390e-109
7.683749999999946567e+00 2.322794011940661863e-109
7.897499999999951115e+00 8.715374840028127249e-110
8.111249999999941451e+00 -2.341621140489972552e-109
8.324999999999945999e+00 -7.584252800628913391e-109
8.538749999999950546e+00 -1.449571738239478332e-108
8.752499999999940883e+00 -2.165780579947530904e-108
8.966249999999945430e+00 -2.622326610667104771e-108
9.179999999999949978e+00 -2.381453089808372371e-108
9.393749999999940314e+00 -8.983013279930543024e-109
9.607499999999944862e+00 2.345560857106469794e-108
9.821249999999949409e+00 7.598086554860151789e-108
1.003499999999993975e+01 1.448529585935151143e-107
1.024874999999994429e+01 2.160359019222368040e-107
1.046249999999994884e+01 2.617641898671465223e-107
1.067624999999993918e+01 2.397653168404018921e-107
1.088999999999994373e+01 9.783201284602853614e-108
1.110374999999994827e+01 -2.133985623811367891e-107
1.131749999999993861e+01 -7.174778343703058840e-107
1.153124999999994316e+01 -1.379472215659285439e-106
1.174499999999994770e+01 -2.068477702130062176e-106
1.195874999999993804e+01 -2.526463984557336991e-106
1.217249999999994259e+01 -2.361698235019071666e-106
1.238624999999994714e+01 -1.090815578701338942e-106
1.259999999999993747e+01 1.745341988822613245e-106
1.281374999999994202e+01 6.375199949152937036e-106
1.302749999999994657e+01 1.250435590598608756e-105
1.324124999999995111e+01 1.898177409593596688e-105
1.345499999999994145e+01 2.352217710761123357e-105
1.366874999999994600e+01 2.264319928986635099e-105
1.388249999999995055e+01 1.202453120159589372e-105
1.409624999999994088e+01 -1.249638447573383595e-105
1.430999999999994543e+01 -5.314889424710582736e-105
1.452374999999994998e+01 -1.077179365066275844e-104
1.473749999999994031e+01 -1.666665596735781913e-104
1.495124999999994486e+01 -2.107116954992551591e-104
1.516499999999994941e+01 -2.101741358535410578e-104
1.537874999999993975e+01 -1.278232477860439894e-104
1.559249999999994429e+01 7.300336462671839868e-105
1.580624999999994884e+01 4.138046458562607711e-104
1.601999999999993918e+01 8.801579016355373173e-104
1.623374999999994373e+01 1.397728876614140126e-103
1.644749999999994827e+01 1.811591200200820365e-103
1.666124999999993861e+01 1.879412946006206883e-103
1.687499999999994316e+01 1.292286946067670886e-103
1.708874999999994770e+01 -2.624539328551321008e-104
1.730249999999993804e+01 -2.986503349690640778e-103
1.751624999999994259e+01 -6.805643175953850935e-103
1.772999999999994714e+01 -1.117651730789730725e-102
1.794374999999993747e+01 -1.491493344306844368e-102
1.815749999999994202e+01 -1.612668901567095887e-102
1.837124999999994657e+01 -1.234731406783747166e-102
1.858499999999993690e+01 -1.002807969129941504e-103
1.879874999999994145e+01 1.972793962173119221e-102
1.901249999999994600e+01 4.965379839165545909e-102
1.922624999999993634e+01 8.506944028466716145e-102
1.943999999999994088e+01 1.173729560953149356e-101
1.965374999999994543e+01 1.323997322334643106e-101
1.986749999999993577e+01 1.112650567357551765e-101
2.008124999999994031e+01 3.356433675621044681e-102
2.029499999999994486e+01 -1.164289127040046660e-101
2.050874999999993520e+01 -3.405250403225850239e-101
2.072249999999993975e+01 -6.153610970824640961e-101
2.093624999999994429e+01 -8.816390208035594344e-101
2.114999999999993463e+01 -1.038082057511072531e-100
2.136374999999993918e+01 -9.458033268122982925e-101
2.157749999999994373e+01 -4.493128733977806796e-101
2.179124999999993406e+01 5.808989837767637162e-101
2.200499999999993861e+01 2.183255530881435758e-100
2.221874999999994316e+01 4.223780125170560149e-100
2.243249999999993349e+01 6.315247096958572497e-100
2.264624999999993804e+01 7.765524336028275622e-100
2.285999999999994259e+01 7.594584541067542709e-100
2.307374999999993292e+01 4.664390977803712914e-100
2.328749999999993747e+01 -2.041428321464696695e-100
2.350124999999994202e+01 -1.297662175274485895e-99
2.371499999999993236e+01 -2.746627327381270599e-99
2.392874999999993690e+01 -4.312123390326514961e-99
2.414249999999994145e+01 -5.542100142883476559e-99
2.435624999999993179e+01 -5.772932474550140547e-99
2.456999999999993634e+01 -4.204634706032551861e-99
2.478374999999994088e+01 -7.642989246590437738e-101
2.499749999999993122e+01 7.046055748731234007e-99
2.521124999999993577e+01 1.689085829108712025e-98
2.542499999999994031e+01 2.807078190415175346e-98
2.563874999999993065e+01 3.776395917537557557e-98
2.585249999999993520e+01 4.165485863896865888e-98
2.606624999999993975e+01 3.433798725000675460e-98
2.627999999999994429e+01 1.037110908937564508e-98
2.649374999999993463e+01 -3.392435535624974204e-98
2.670749999999993918e+01 -9.800173347186180807e-98
2.692124999999994373e+01 -1.743336055135797445e-97
2.713499999999993406e+01 -2.460812030240400422e-97
2.734874999999993861e+01 -2.862593981969591119e-97
2.756249999999994316e+01 -2.597028975447782150e-97
2.777624999999993349e+01 -1.290991564085465337e-97
2.798999999999993804e+01 1.341349433368960838e-97
2.820374999999994259e+01 5.344337707305347969e-97
2.841749999999993292e+01 1.034130669559872054e-96
2.863124999999993747e+01 1.537180545531599925e-96
2.884499999999994202e+01 1.881055438317649652e-96
2.905874999999993236e+01 1.844999765798344591e-96
2.927249999999993690e+01 1.182959531001681839e-96
2.948624999999994145e+01 -3.130187318588090425e-97
2.969999999999993179e+01 -2.719226130919702577e-96
2.991374999999993634e+01 -5.866945932487978302e-96
3.012749999999994088e+01 -9.233087430196929957e-96
3.034124999999993122e+01 -1.187308156335543224e-95
3.055499999999993577e+01 -1.244599303074373159e-95
3.076874999999994031e+01 -9.384949474334296038e-96
3.098249999999993065e+01 -1.253965332662532597e-96
3.119624999999993520e+01 1.270103241807084268e-95
3.140999999999993975e+01 3.185686279787688470e-95
3.162374999999993008e+01 5.350278607238937646e-95
3.183749999999993463e+01 7.233441205989528698e-95
3.205124999999993918e+01 8.044898046903048957e-95
3.226499999999992951e+01 6.817247934361324697e-95
3.247874999999993406e+01 2.599789514296439336e-95
3.269249999999993861e+01 -5.226026655876883170e-95
3.290624999999992895e+01 -1.653111993550669368e-94
3.311999999999993349e+01 -2.999093861477818637e-94
3.333374999999993804e+01 -4.272723244377624629e-94
3.354749999999992838e+01 -5.021197377655254549e-94
3.376124999999993292e+01 -4.663422709009626785e-94
3.397499999999993747e+01 -2.591337088980159379e-94
3.418874999999992781e+01 1.654483810356902421e-94
3.440249999999993236e+01 8.142639206026178077e-94
3.461624999999993690e+01 1.627590984608092158e-93
3.482999999999992724e+01 2.454935902169406365e-93
3.504374999999993179e+01 3.043932689628935049e-93
3.525749999999993634e+01 3.054257137597498047e-93
3.547124999999992667e+01 2.108238446701081376e-93
3.568499999999993122e+01 -1.142254843739292800e-94
3.589874999999993577e+01 -3.737914346756340684e-93
3.611249999999992610e+01 -8.527552606649464804e-93
3.632624999999993065e+01 -1.373054080159836050e-92
3.653999999999993520e+01 -1.798120525385690703e-92
3.675374999999992554e+01 -1.933577477558122427e-92
3.696749999999993008e+01 -1.551043453228979196e-92
3.718124999999993463e+01 -4.377360965646156053e-93
3.739499999999992497e+01 1.527195664049327444e-92
3.760874999999992951e+01 4.276411784719899818e-92
3.782249999999993406e+01 7.455492866803079106e-92
3.803624999999993861e+01 1.035046994088341245e-91
3.824999999999994316e+01 1.188095818093049700e-91
3.846374999999991928e+01 1.070246450955892327e-91
3.867749999999992383e+01 5.455105083038964301e-92
3.889124999999992838e+01 -4.825836746891579066e-92
3.910499999999993292e+01 -2.016230663864579807e-91
3.931874999999993747e+01 -3.903138284549354951e-91
3.953249999999994202e+01 -5.785970239593190554e-91
3.974624999999991815e+01 -7.083022968847520208e-91
3.995999999999992269e+01 -7.025618429163305966e-91
4.017374999999992724e+01 -4.776216308738811054e-91
4.038749999999993179e+01 3.584897044244768626e-92
4.060124999999993634e+01 8.625367246120195330e-91
4.081499999999994088e+01 1.947023755627920119e-90
4.102874999999991701e+01 3.120629771493518589e-90
4.124249999999992156e+01 4.082071879366166055e-90
4.145624999999992610e+01 4.406380491990838288e-90
4.166999999999993065e+01 3.596855262430072177e-90
4.188374999999993520e+01 1.190924494311468588e-90
4.209749999999993975e+01 -3.078843269648736627e-90
4.231124999999991587e+01 -9.083215076612044747e-90
4.252499999999992042e+01 -1.609009688740031328e-89
4.273874999999992497e+01 -2.261286897272462257e-89
4.295249999999992951e+01 -2.639227330276507975e-89
4.316624999999993406e+01 -2.459902613244390776e-89
4.337999999999993861e+01 -1.433129406952217846e-89
4.359374999999991473e+01 6.561985323419586749e-90
4.380749999999991928e+01 3.837954506711075986e-89
4.402124999999992383e+01 7.834752955113499686e-89
4.423499999999992838e+01 1.195720430717361016e-88
4.444874999999993292e+01 1.505807579915106604e-88
4.466249999999993747e+01 1.559458819649835807e-88
4.487624999999991360e+01 1.184563295515093332e-88
4.508999999999991815e+01 2.312907850898250762e-89
4.530374999999992269e+01 -1.370205469341889496e-88
4.551749999999992724e+01 -3.540977103191032678e-88
4.573124999999993179e+01 -5.986992115861643172e-88
4.594499999999993634e+01 -8.156391847042329919e-88
4.615874999999991246e+01 -9.246908691112532010e-88
4.637249999999991701e+01 -8.291145035019134338e-88
4.658624999999992156e+01 -4.341008755139535055e-88
4.679999999999992610e+01 3.243833221481461143e-88
4.701374999999993065e+01 1.442617210388771876e-87
4.722749999999993520e+01 2.809997001546441716e-87
4.744124999999993975e+01 4.177888397112675017e-87
4.765499999999991587e+01 5.150220309144078858e-87
4.786874999999992042e+01 5.211326881250121554e-87
4.808249999999992497e+01 3.804804212769803565e-87
4.829624999999992951e+01 4.703968612978891223e-88
4.850999999999993406e+01 -4.966783707411092538e-87
4.872374999999993861e+01 -1.217885249881598550e-86
4.893749999999991473e+01 -2.013585769306874690e-86
4.915124999999991928e+01 -2.699251196146677045e-86
4.936499999999992383e+01 -3.014337047687085308e-86
4.957874999999992838e+01 -2.652802630032451315e-86
4.979249999999993292e+01 -1.324310907113474427e-86
5.000624999999993747e+01 1.153743176617049161e-86
5.021999999999991360e+01 4.741968044400119822e-86
5.043374999999991815e+01 9.062343618866594730e-86
5.064749999999992269e+01 1.331112300519879469e-85
5.086124999999992724e+01 1.624294625063124080e-85
5.107499999999993179e+01 1.627130090261720717e-85
5.128874999999993634e+01 1.172303627212494538e-85
5.150249999999991246e+01 1.262291604469228591e-86
5.171624999999991701e+01 -1.554012962409155120e-85
5.192999999999992156e+01 -3.757061464098401447e-85
5.214374999999992610e+01 -6.161172781873700614e-85
5.235749999999993065e+01 -8.205686787879085597e-85
5.257124999999993520e+01 -9.113605330029328797e-85
5.278499999999991132e+01 -7.987640403277309564e-85
5.299874999999991587e+01 -3.993946064649753366e-85
5.321249999999992042e+01 3.368925064145709823e-85
5.342624999999992497e+01 1.394355595821207940e-84
5.363999999999992951e+01 2.658891640912779115e-84
5.385374999999993406e+01 3.894895906090012140e-84
5.406749999999991019e+01 4.743091206814516536e-84
5.428124999999991473e+01 4.751553689567082663e-84
5.449499999999991928e+01 3.449674258234297844e-84
5.470874999999992383e+01 4.682307896321559102e-85
5.492249999999992838e+01 -4.302301585138214158e-84
5.513624999999993292e+01 -1.053799110753936379e-83
5.534999999999990905e+01 -1.733179136111111544e-83
5.556374999999991360e+01 -2.312250877644036199e-83
5.577749999999991815e+01 -2.576499795400929051e-83
5.599124999999992269e+01 -2.279940145987910108e-83
5.620499999999992724e+01 -1.195395605340280224e-83
5.641874999999993179e+01 8.129511039586825126e-84
5.663249999999990791e+01 3.702522938457674315e-83
5.684624999999991246e+01 7.166787446027872921e-83
5.705999999999991701e+01 1.057534447416868007e-82
5.727374999999992156e+01 1.296986596099630922e-82
5.748749999999992610e+01 1.314711870406481433e-82
5.770124999999993065e+01 9.853375966164535019e-83
5.791499999999990678e+01 2.097289177979707810e-83
5.812874999999991132e+01 -1.044005993843646056e-82
5.834249999999991587e+01 -2.695689254459347684e-82
5.855624999999992042e+01 -4.514498693316174031e-82
5.876999999999992497e+01 -6.100391730465145473e-82
5.898374999999992951e+01 -6.901185357653670788e-82
5.919749999999990564e+01 -6.279656240401529991e-82
5.941124999999991019e+01 -3.639187761910087061e-82
5.962499999999991473e+01 1.394709263652483699e-82
5.983874999999991928e+01 8.756048087636079464e-82
6.005249999999992383e+01 1.772210644901645599e-81
6.026624999999992838e+01 2.675806083520627830e-81
6.047999999999990450e+01 3.349593063877478533e-81
6.069374999999990905e+01 3.492394728300943776e-81
6.090749999999991360e+01 2.784634747275749633e-81
6.112124999999991815e+01 9.633183320221245797e-82
6.133499999999992269e+01 -2.078681802999603399e-81
6.154874999999992724e+01 -6.182593105842944254e-81
6.176249999999993179e+01 -1.082638838996659630e-80
6.197624999999990791e+01 -1.507231807367861777e-80
6.218999999999991246e+01 -1.759637978024698097e-80
6.240374999999991701e+01 -1.683437976668758289e-80
6.261749999999992156e+01 -1.126653596375457281e-80
6.283124999999992610e+01 1.623775998588647010e-82
6.304499999999993065e+01 1.752726054900018485e-80
6.325874999999990678e+01 3.939654354749311755e-80
6.347249999999991132e+01 6.242716014319250904e-80
6.368624999999991587e+01 8.124769045319573613e-80
6.389999999999992042e+01 8.880702890558214633e-80
6.411374999999992497e+01 7.733553588709040702e-80
6.432749999999992951e+01 3.998193048065564364e-80
6.454124999999990564e+01 -2.695301562825710698e-80
6.475499999999991019e+01 -1.214583192416096520e-79
6.496874999999991473e+01 -2.334229938102769784e-79
6.518249999999991928e+01 -3.431120042517426871e-79
6.539624999999992383e+01 -4.213336087978938054e-79
6.560999999999992838e+01 -4.321049760313904428e-79
6.582374999999990450e+01 -3.383890347327843730e-79
6.603749999999990905e+01 -1.109794455418367264e-79
6.625124999999991360e+01 2.601510114050143861e-79
6.646499999999991815e+01 7.536880681610877451e-79
6.667874999999992269e+01 1.306672415467265129e-78
6.689249999999992724e+01 1.809579666914398251e-78
6.710624999999990337e+01 2.110689834323318691e-78
6.731999999999990791e+01 2.033236674125052033e-78
6.753374999999991246e+01 1.407330304141979666e-78
6.774749999999991701e+01 1.159175165846836773e-79
6.796124999999992156e+01 -1.849831335867776126e-78
6.817499999999992610e+01 -4.334928186590605113e-78
6.838874999999990223e+01 -6.978529100609894733e-78
6.860249999999990678e+01 -9.202530634104546330e-78
6.881624999999991132e+01 -1.024854794948123395e-77
6.902999999999991587e+01 -9.277604897207677509e-78
6.924374999999992042e+01 -5.538250299604151260e-78
6.945749999999992497e+01 1.405356009409061595e-78
6.967124999999990109e+01 1.141271967991750129e-77
6.988499999999990564e+01 2.352214813495971701e-77
7.009874999999991019e+01 3.578957098808065809e-77
7.031249999999991473e+01 4.529072974462581046e-77
7.052624999999991928e+01 4.836436456776289121e-77
7.073999999999992383e+01 4.115197271933242029e-77
7.095374999999989996e+01 2.044362724045248812e-77
7.116749999999990450e+01 -1.523082740211227013e-77
7.138124999999990905e+01 -6.441433851628106322e-77
7.159499999999991360e+01 -1.216818596630060443e-76
7.180874999999991815e+01 -1.770678480531012323e-76
7.202249999999992269e+01 -2.163212671722406148e-76
7.223624999999989882e+01 -2.223154752643451248e-76
7.244999999999990337e+01 -1.778145348165355682e-76
7.266374999999990791e+01 -6.956443235175638365e-77
7.287749999999991246e+01 1.066559437509712498e-76
7.309124999999991701e+01 3.407895511296165674e-76
7.330499999999992156e+01 6.042286246418003528e-76
7.351874999999989768e+01 8.479884800523146981e-76
7.373249999999990223e+01 1.004896342310472358e-75
7.394624999999990678e+01 9.971273293336665067e-76
7.415999999999991132e+01 7.497567726950561189e-76
7.437374999999991587e+01 2.098724549955267132e-76
7.458749999999992042e+01 -6.307401838176687089e-76
7.480124999999992497e+01 -1.713081934104428369e-75
7.501499999999990109e+01 -2.893999306830646519e-75
7.522874999999990564e+01 -3.941364036036179741e-75
7.544249999999991019e+01 -4.548021248776712902e-75
7.565624999999991473e+01 -4.369735563083764729e-75
7.586999999999991928e+01 -3.089072168035490965e-75
7.608374999999992383e+01 -5.019219394231013301e-76
7.629749999999989996e+01 3.383418698807249991e-75
7.651124999999990450e+01 8.252173154355356804e-75
7.672499999999990905e+01 1.341826323849315936e-74
7.693874999999991360e+01 1.781697770737362218e-74
7.715249999999991815e+01 2.008252594813164286e-74
7.736624999999992269e+01 1.873025894693816099e-74
7.757999999999989882e+01 1.244774268073338891e-74
7.779374999999990337e+01 4.754071937589888242e-76
7.800749999999990791e+01 -1.697182644179961022e-74
7.822124999999991246e+01 -3.832147072355287320e-74
7.843499999999991701e+01 -6.040454000156838949e-74
7.864874999999992156e+01 -7.847937465427561851e-74
7.886249999999989768e+01 -8.662810653004524830e-74
7.907624999999990223e+01 -7.859773186119010020e-74
7.928999999999990678e+01 -4.908672922326225428e-74
7.950374999999991132e+01 4.623938212359071760e-75
7.971749999999991587e+01 8.091967483127250899e-74
7.993124999999992042e+01 1.723299847987692338e-73
8.014499999999989654e+01 2.646826600970788573e-73
8.035874999999990109e+01 3.374204128550173896e-73
8.057249999999990564e+01 3.655096116897655618e-73
8.078624999999991019e+01 3.231920491673642922e-73
8.099999999999991473e+01 1.895181063578663072e-73
8.121374999999991928e+01 -4.483238712176817357e-74
8.142749999999989541e+01 -3.704391732728454800e-73
8.164124999999989996e+01 -7.532294294487074626e-73
8.185499999999990450e+01 -1.131615245438692288e-72
8.206874999999990905e+01 -1.418626679949611506e-72
8.228249999999991360e+01 -1.510680791022003829e-72
8.249624999999991815e+01 -1.303821104315505535e-72
8.270999999999989427e+01 -7.169277439938176589e-73
8.292374999999989882e+01 2.803841376737427632e-73
8.313749999999990337e+01 1.639476175122089134e-72
8.335124999999990791e+01 3.210200067290998030e-72
8.356499999999991246e+01 4.731694803446158858e-72
8.377874999999991701e+01 5.844099170968396547e-72
8.399249999999989313e+01 6.127308955464474090e-72
8.420624999999989768e+01 5.169407694324635938e-72
8.441999999999990223e+01 2.661857628439127064e-72
8.463374999999990678e+01 -1.488649562352014846e-72
8.484749999999991132e+01 -7.049686179609821754e-72
8.506124999999991587e+01 -1.337908001162369925e-71
8.527499999999989200e+01 -1.939704968873055459e-71
8.548874999999989654e+01 -2.364387180305635501e-71
8.570249999999990109e+01 -2.444557182132702766e-71
8.591624999999990564e+01 -2.019541481904885050e-71
8.612999999999991019e+01 -9.736509770737857410e-72
8.634374999999991473e+01 7.197545062556433975e-72
8.655749999999989086e+01 2.955748387847111558e-71
8.677124999999989541e+01 5.466875880711364328e-71
8.698499999999989996e+01 7.815289574217477198e-71
8.719874999999990450e+01 9.419131785134867122e-71
8.741249999999990905e+01 9.621310090443919747e-71
8.762624999999991360e+01 7.802803588989213683e-71
8.783999999999991815e+01 3.533732658153854608e-71
8.805374999999989427e+01 -3.255586419599174676e-71
8.826749999999989882e+01 -1.211293155418954776e-70
8.848124999999990337e+01 -2.195091848853238062e-70
8.869499999999990791e+01 -3.102646823930615251e-70
8.890874999999991246e+01 -3.705484080196535119e-70
8.912249999999991701e+01 -3.748756208931296226e-70
8.933624999999989313e+01 -2.995967367981728391e-70
8.954999999999989768e+01 -1.287712299166196652e-70
8.976374999999990223e+01 1.392695731728186641e-70
8.997749999999990678e+01 4.858169565451231896e-70
9.019124999999991132e+01 8.676405298295423878e-70
9.040499999999991587e+01 1.216483916892612813e-69
9.061874999999989200e+01 1.443760719071586767e-69
9.083249999999989654e+01 1.451509409501160185e-69
9.104624999999990109e+01 1.149738015416543102e-69
9.125999999999990564e+01 4.789673288771182423e-70
9.147374999999991019e+01 -5.648061223540217366e-70
9.168749999999991473e+01 -1.907122831417715384e-69
9.190124999999989086e+01 -3.379755603461861018e-69
9.211499999999989541e+01 -4.719400324532132442e-69
9.232874999999989996e+01 -5.586171138939667944e-69
9.254249999999990450e+01 -5.605768879429539452e-69
9.275624999999990905e+01 -4.435668412098995865e-69
9.296999999999991360e+01 -1.850696474800327942e-69
9.318374999999988972e+01 2.162562275561201928e-69
9.339749999999989427e+01 7.319102500410334358e-69
9.361124999999989882e+01 1.297799247604845356e-68
9.382499999999990337e+01 1.813763894900130599e-68
9.403874999999990791e+01 2.150550543735511581e-68
9.425249999999991246e+01 2.165671423048316873e-68
9.446624999999988859e+01 1.728285585915593330e-68
9.467999999999989313e+01 7.513861748936460022e-69
9.489374999999989768e+01 -7.726228729156275370e-69
9.510749999999990223e+01 -2.739111399781799424e-68
9.532124999999990678e+01 -4.909129617919849376e-68
9.553499999999991132e+01 -6.906842385910555923e-68
9.574874999999988745e+01 -8.244629202543212346e-68
9.596249999999989200e+01 -8.381365466794093576e-68
9.617624999999989654e+01 -6.814618014555769294e-68
9.638999999999990109e+01 -3.200709964285868800e-68
9.660374999999990564e+01 2.511522476979397663e-68
9.681749999999991019e+01 9.955779304997705387e-68
9.703124999999988631e+01 1.826150931143250410e-67
9.724499999999989086e+01 2.603806346068089061e-67
9.745874999999989541e+01 3.146052605875020882e-67
9.767249999999989996e+01 3.247879191543473981e-67
9.788624999999990450e+01 2.715432417965799909e-67
9.809999999999990905e+01 1.410441086100120228e-67
9.831374999999988518e+01 -6.996161373967376728e-68
9.852749999999988972e+01 -3.493715962432702866e-67
9.874124999999989427e+01 -6.662612706244103560e-67
9.895499999999989882e+01 -9.699455482500518614e-67
9.916874999999990337e+01 -1.192736611708971499e-66
9.938249999999990791e+01 -1.257254873957943207e-66
9.959624999999988404e+01 -1.088547266154593449e-66
9.980999999999988859e+01 -6.303818767364345219e-67
1.000237499999998931e+02 1.360064078231005883e-67
1.002374999999998977e+02 1.173604991100352006e-66
1.004512499999999022e+02 2.375648525164857218e-66
1.006649999999999068e+02 3.560489764183057666e-66
1.008787499999998829e+02 4.479750459426581881e-66
1.010924999999998875e+02 4.843180966435111992e-66
1.013062499999998920e+02 4.361572946233562836e-66
1.015199999999998965e+02 2.805919210812556893e-66
1.017337499999999011e+02 7.703182058667048996e-68
1.019474999999999056e+02 -3.724495686472447177e-66
1.021612499999999102e+02 -8.242018337763226139e-66
1.023749999999998863e+02 -1.283687186949974454e-65
1.025887499999998909e+02 -1.660950997766467940e-65
1.028024999999998954e+02 -1.848142171172231130e-65
1.030162499999999000e+02 -1.734442861668538777e-65
1.032299999999999045e+02 -1.227287184606766144e-65
1.034437499999999091e+02 -2.779814250885366604e-66
1.036574999999998852e+02 1.091764453718993374e-65
1.038712499999998897e+02 2.767390114293859547e-65
1.040849999999998943e+02 4.529188254445031998e-65
1.042987499999998988e+02 6.056475691569025119e-65
1.045124999999999034e+02 6.953626115563094847e-65
1.047262499999999079e+02 6.801001712748850435e-65
1.049399999999998840e+02 5.229965157180725591e-65
1.051537499999998886e+02 2.016010163455415819e-65
1.053674999999998931e+02 -2.821832200234700054e-65
1.055812499999998977e+02 -8.932868016814107084e-65
1.057949999999999022e+02 -1.557978806594882560e-64
1.060087499999999068e+02 -2.164035034558661387e-64
1.062224999999998829e+02 -2.568661179078396361e-64
1.064362499999998875e+02 -2.615492883051712088e-64
1.066499999999998920e+02 -2.160672531293985974e-64
1.068637499999998965e+02 -1.106186801470290554e-64
1.070774999999999011e+02 5.634804258489812807e-65
1.072912499999999056e+02 2.747457955780276426e-64
1.075049999999998818e+02 5.205147843230119587e-64
1.077187499999998863e+02 7.552011308879751888e-64
1.079324999999998909e+02 9.282418466191246960e-64
1.081462499999998954e+02 9.825041302582810057e-64
1.083599999999999000e+02 8.631805645107914386e-64
1.085737499999999045e+02 5.295102573289339982e-64
1.087874999999998806e+02 -3.196259860271682629e-65
1.090012499999998852e+02 -7.946618949765007527e-64
1.092149999999998897e+02 -1.682508280451292088e-63
1.094287499999998943e+02 -2.566778602454376158e-63
1.096424999999998988e+02 -3.272238403266256550e-63
1.098562499999999034e+02 -3.594721671697984732e-63
1.100699999999998795e+02 -3.330850409756228063e-63
1.102837499999998840e+02 -2.318427181939904541e-63
1.104974999999998886e+02 -4.833811711793044602e-64
1.107112499999998931e+02 2.113647415389144855e-63
1.109249999999998977e+02 5.240432665748329598e-63
1.111387499999999022e+02 8.476799949240136230e-63
1.113524999999998784e+02 1.122940817104571001e-62
1.115662499999998829e+02 1.278596952412265062e-62
1.117799999999998875e+02 1.241236964494902506e-62
1.119937499999998920e+02 9.488902573307519891e-63
1.122074999999998965e+02 3.672743411345935143e-63
1.124212499999999011e+02 -4.936003174998137229e-63
1.126349999999998772e+02 -1.565612046734386194e-62
1.128487499999998818e+02 -2.715207836756660953e-62
1.130624999999998863e+02 -3.746326564466112904e-62
1.132762499999998909e+02 -4.416615289156486009e-62
1.134899999999998954e+02 -4.468443894420985837e-62
1.137037499999999000e+02 -3.673837034584224250e-62
1.139174999999998761e+02 -1.889391062793114703e-62
1.141312499999998806e+02 8.861014430803228429e-63
1.143449999999998852e+02 4.461676232379104684e-62
1.145587499999998897e+02 8.424338910362278211e-62
1.147724999999998943e+02 1.214217948924560260e-61
1.149862499999998988e+02 1.481130526452507809e-61
1.151999999999998749e+02 1.555259297183277527e-61
1.154137499999998795e+02 1.355655950754524236e-61
1.156274999999998840e+02 8.264625463272542984e-62
1.158412499999998886e+02 -4.361248740038251160e-63
1.160549999999998931e+02 -1.203809035845542432e-61
1.162687499999998977e+02 -2.529915497872479002e-61
1.164824999999999022e+02 -3.823257734868605577e-61
1.166962499999998784e+02 -4.823814987720242094e-61
1.169099999999998829e+02 -5.239710522629554025e-61
1.171237499999998875e+02 -4.792887802721524625e-61
1.173374999999998920e+02 -3.277557944142379696e-61
1.175512499999998965e+02 -6.243583851796449017e-62
1.177649999999999011e+02 3.040329937734781055e-61
1.179787499999998772e+02 7.353062172651829267e-61
1.181924999999998818e+02 1.170406463664080462e-60
1.184062499999998863e+02 1.527254283499155732e-60
1.186199999999998909e+02 1.711457948445962790e-60
1.188337499999998954e+02 1.630407580126635733e-60
1.190474999999999000e+02 1.211702433023148556e-60
1.192612499999998761e+02 4.237761295611124282e-61
1.194749999999998806e+02 -7.045481599009508776e-61
1.196887499999998852e+02 -2.069710554457387755e-60
1.199024999999998897e+02 -3.488763981588354600e-60
1.201162499999998943e+02 -4.708501511929804454e-60
1.203299999999998988e+02 -5.431107929836435451e-60
1.205437499999998749e+02 -5.356777162112416783e-60
1.207574999999998795e+02 -4.240594989350827541e-60
1.209712499999998840e+02 -1.957346287131600450e-60
1.211849999999998886e+02 1.435685264906392656e-60
1.213987499999998931e+02 5.650685020319412542e-60
1.216124999999998977e+02 1.015007074080556716e-59
1.218262499999998738e+02 1.416903793836315128e-59
1.220399999999998784e+02 1.678898153861376357e-59
1.222537499999998829e+02 1.706398581753065440e-59
1.224674999999998875e+02 1.419303648927370479e-59
1.226812499999998920e+02 7.719442027265029024e-60
1.228949999999998965e+02 -2.272199449926693069e-60
1.231087499999998727e+02 -1.500012077135935951e-59
1.233224999999998772e+02 -2.891358498538238673e-59
1.235362499999998818e+02 -4.174559586494963563e-59
1.237499999999998863e+02 -5.071938292396339956e-59
1.239637499999998909e+02 -5.291758442949340154e-59
1.241774999999998954e+02 -4.579458158580377047e-59
1.243912499999998715e+02 -2.777877729307244196e-59
1.246049999999998761e+02 1.122368160870823586e-60
1.248187499999998806e+02 3.882957921975996483e-59
1.250324999999998852e+02 8.094074511517900532e-59
1.252462499999998897e+02 1.208451324722461477e-58
1.254599999999998943e+02 1.502947656115939534e-58
1.256737499999998704e+02 1.604658740734442130e-58
1.258874999999998749e+02 1.434596272033064455e-58
1.261012499999998795e+02 9.409151036339129720e-59
1.263149999999998840e+02 1.171683685151882948e-59