2.024999999999579359e-01 -3.562330730770317302e-103
4.162499999999482725e-01 -6.132252395628604504e-103
6.299999999999528200e-01 -7.785908803478573489e-103
8.437499999999573674e-01 -6.996412139416672211e-103
1.057499999999947704e+00 -2.242343804862104094e-103
1.271249999999952252e+00 7.209779440496329750e-103
1.484999999999956799e+00 2.028878283083429971e-102
1.698749999999947136e+00 3.321064328775443266e-102
1.912499999999951683e+00 3.925661944667581882e-102
2.126249999999956231e+00 2.994119452338363355e-102
2.339999999999946567e+00 -1.874823114938772013e-103
2.553749999999951115e+00 -5.695341924065705599e-102
2.767499999999955662e+00 -1.238410301625719989e-101
2.981249999999945999e+00 -1.747658398571535012e-101
3.194999999999950546e+00 -1.671186831462689554e-101
3.408749999999955094e+00 -5.470459367289502190e-102
3.622499999999945430e+00 1.887381864860772484e-101
3.836249999999949978e+00 5.358847266080700485e-101
4.049999999999954525e+00 8.718571351425965976e-101
4.263749999999944862e+00 9.790584879811961385e-101
4.477499999999949409e+00 5.671426273337234801e-101
4.691249999999953957e+00 -6.262951452119042143e-101
4.904999999999944293e+00 -2.654410520644053711e-100
5.118749999999948841e+00 -5.125132891217614528e-100
5.332499999999953388e+00 -6.991509271676608995e-100
5.546249999999943725e+00 -6.511361296667418130e-100
5.759999999999948272e+00 -1.560937970485950391e-100
5.973749999999952820e+00 9.532780248205424559e-100
6.187499999999943157e+00 2.660458534529524402e-99
6.401249999999947704e+00 4.593926124212402366e-99
6.614999999999952252e+00 5.885909397577677877e-99
6.828749999999942588e+00 5.165898547442477246e-99
7.042499999999947136e+00 8.199426206441461898e-100
7.256249999999951683e+00 -8.372003281533738144e-99
7.469999999999942020e+00 -2.220339098039175406e-98
7.683749999999946567e+00 -3.778696598580310775e-98
7.897499999999951115e+00 -4.852901791322870374e-98
8.111249999999941451e+00 -4.407697666442596457e-98
8.324999999999945999e+00 -1.216616637232186796e-98
8.538749999999950546e+00 5.683675838820974151e-98
8.752499999999940883e+00 1.625450672522605130e-97
8.966249999999945430e+00 2.854755369076567172e-97
9.179999999999949978e+00 3.793337976317655230e-97
9.393749999999940314e+00 3.697613867035074810e-97
9.607499999999944862e+00 1.659744326339927025e-97
9.821249999999949409e+00 -3.089568141403330288e-97
1.003499999999993975e+01 -1.067552130164610175e-96
1.024874999999994429e+01 -1.993972991125434738e-96
1.046249999999994884e+01 -2.786153598668765008e-96
1.067624999999993918e+01 -2.937537512703505563e-96
1.088999999999994373e+01 -1.801927249782302074e-96
1.110374999999994827e+01 1.217442356726655753e-96
1.131749999999993861e+01 6.337696729164850813e-96
1.153124999999994316e+01 1.296106647549156376e-95
1.174499999999994770e+01 1.925165173619657756e-95
1.195874999999993804e+01 2.193547262913095434e-95
1.217249999999994259e+01 1.660910562341335975e-95
1.238624999999994714e+01 -1.155709503587151723e-96
1.259999999999993747e+01 -3.375512260339086707e-95
1.281374999999994202e+01 -7.870133354880250390e-95
1.302749999999994657e+01 -1.256356285762781311e-94
1.324124999999995111e+01 -1.544798489161615922e-94
1.345499999999994145e+01 -1.365332678613877782e-94
1.366874999999994600e+01 -4.046303274563888587e-95
1.388249999999995055e+01 1.555010643943868715e-94
1.409624999999994088e+01 4.456171411098329403e-94
1.430999999999994543e+01 7.763720110555702671e-94
1.452374999999994998e+01 1.031228405510143394e-93
1.473749999999994031e+01 1.031397668116978691e-93
1.495124999999994486e+01 5.653839366755046229e-94
1.516499999999994941e+01 -5.425690235813544475e-94
1.537874999999993975e+01 -2.324262275801240985e-93
1.559249999999994429e+01 -4.535781353386360560e-93
1.580624999999994884e+01 -6.541952395913950629e-93
1.601999999999993918e+01 -7.281433221342225179e-93
1.623374999999994373e+01 -5.392611017063653313e-93
1.644749999999994827e+01 4.266501950786523582e-94
1.666124999999993861e+01 1.079725840483393146e-92
1.687499999999994316e+01 2.483960350247620992e-92
1.708874999999994770e+01 3.935844328815986049e-92
1.730249999999993804e+01 4.839064415484358786e-92
1.751624999999994259e+01 4.359837255574279157e-92
1.772999999999994714e+01 1.600200045643829350e-92
1.794374999999993747e+01 -4.064540767125547694e-92
1.815749999999994202e+01 -1.250112720790914728e-91
1.837124999999994657e+01 -2.227959221722026381e-91
1.858499999999993690e+01 -3.026872587717151698e-91
1.879874999999994145e+01 -3.164209291067044213e-91
1.901249999999994600e+01 -2.060911436696111346e-91
1.922624999999993634e+01 7.879909926690232890e-92
1.943999999999994088e+01 5.542637553440545661e-91
1.965374999999994543e+01 1.168445811896763709e-90
1.986749999999993577e+01 1.771088299616836887e-90
2.008124999999994031e+01 2.100789612135225141e-90
2.029499999999994486e+01 1.808838574976333682e-90
2.050874999999993520e+01 5.374054260200676849e-91
2.072249999999993975e+01 -1.939257379684957218e-90
2.093624999999994429e+01 -5.521427291993072398e-90
2.114999999999993463e+01 -9.578653067471805941e-90
2.136374999999993918e+01 -1.280777480589262402e-89
2.157749999999994373e+01 -1.325927402449220948e-89
2.179124999999993406e+01 -8.646224795534284265e-90
2.200499999999993861e+01 2.980170139506461592e-90
2.221874999999994316e+01 2.219079100781240367e-89
2.243249999999993349e+01 4.692516731070729540e-89
2.264624999999993804e+01 7.137060734305067932e-89
2.285999999999994259e+01 8.551900164574450932e-89
2.307374999999993292e+01 7.607178563425156819e-89
2.328749999999993747e+01 2.931296505361242277e-89
2.350124999999994202e+01 -6.376206411879873788e-89
2.371499999999993236e+01 -2.004573916217746307e-88
2.392874999999993690e+01 -3.589374804533904470e-88
2.414249999999994145e+01 -4.929317555400144158e-88
2.435624999999993179e+01 -5.321851578993723509e-88
2.456999999999993634e+01 -3.925751197656268416e-88
2.478374999999994088e+01 1.164139615781944796e-90
2.499749999999993122e+01 6.799741200542716748e-88
2.521124999999993577e+01 1.586945533940129416e-87
2.542499999999994031e+01 2.536797924319977552e-87
2.563874999999993065e+01 3.196006969156625663e-87
2.585249999999993520e+01 3.105614797352021917e-87
2.606624999999993975e+01 1.767794421391274197e-87
2.627999999999994429e+01 -1.192391109866696738e-87
2.649374999999993463e+01 -5.799169540456509413e-87
2.670749999999993918e+01 -1.147252773444115457e-86
2.692124999999994373e+01 -1.682664616231829487e-86
2.713499999999993406e+01 -1.963156444785445697e-86
2.734874999999993861e+01 -1.706409025891058299e-86
2.756249999999994316e+01 -6.351688521274670789e-87
2.777624999999993349e+01 1.416277451286134242e-86
2.798999999999993804e+01 4.364473297695103450e-86
2.820374999999994259e+01 7.737803970962053261e-86
2.841749999999993292e+01 1.058643282088640852e-85
2.863124999999993747e+01 1.150709134937541785e-85
2.884499999999994202e+01 8.850526801330019003e-86
2.905874999999993236e+01 1.157750595994997304e-86
2.927249999999993690e+01 -1.218153213629878342e-85
2.948624999999994145e+01 -3.013999512976865377e-85
2.969999999999993179e+01 -4.933257831323222272e-85
2.991374999999993634e+01 -6.367049163941978460e-85
3.012749999999994088e+01 -6.475972016185991300e-85
3.034124999999993122e+01 -4.338872283765792235e-85
3.055499999999993577e+01 7.715819297217224962e-86
3.076874999999994031e+01 9.002321710021685540e-85
3.098249999999993065e+01 1.948784754720480229e-84
3.119624999999993520e+01 2.999670267190312020e-84
3.140999999999993975e+01 3.683226255722361312e-84
3.162374999999993008e+01 3.518646886734484185e-84
3.183749999999993463e+01 2.011244845231045082e-84
3.205124999999993918e+01 -1.182981509400060151e-84
3.226499999999992951e+01 -6.040207021351856632e-84
3.247874999999993406e+01 -1.194150042644944017e-83
3.269249999999993861e+01 -1.750816714930984215e-83
3.290624999999992895e+01 -2.059649761635401830e-83
3.311999999999993349e+01 -1.855415824426485130e-83
3.333374999999993804e+01 -8.813924513908352468e-84
3.354749999999992838e+01 1.016871551902356782e-83
3.376124999999993292e+01 3.774184765016589806e-83
3.397499999999993747e+01 6.990296048676821212e-83
3.418874999999992781e+01 9.857137577980160877e-83
3.440249999999993236e+01 1.117996150427653233e-82
3.461624999999993690e+01 9.543110199532053152e-83
3.482999999999992724e+01 3.653105998927546471e-83
3.504374999999993179e+01 -7.148393629826975861e-83
3.525749999999993634e+01 -2.227122157412640616e-82
3.547124999999992667e+01 -3.930843198611163675e-82
3.568499999999993122e+01 -5.373165320700875828e-82
3.589874999999993577e+01 -5.911208413110919736e-82
3.611249999999992610e+01 -4.811093932330310278e-82
3.632624999999993065e+01 -1.437249663838502849e-82
3.653999999999993520e+01 4.476820875454154743e-82
3.675374999999992554e+01 1.251744100468485399e-81
3.696749999999993008e+01 2.131834338586215840e-81
3.718124999999993463e+01 2.844004573938941307e-81
3.739499999999992497e+01 3.053097637661803318e-81
3.760874999999992951e+01 2.388420996798401458e-81
3.782249999999993406e+01 5.440684762258048325e-82
3.803624999999993861e+01 -2.582674820412174327e-81
3.824999999999994316e+01 -6.737706658519939006e-81
3.846374999999991928e+01 -1.118242855568665790e-80
3.867749999999992383e+01 -1.464868303265689068e-80
3.889124999999992838e+01 -1.543901473026425166e-80
3.910499999999993292e+01 -1.172413936892921349e-80
3.931874999999993747e+01 -2.055668538683731344e-81
3.953249999999994202e+01 1.394691531557301099e-80
3.974624999999991815e+01 3.485562512631752907e-80
3.995999999999992269e+01 5.684643474022480155e-80
4.017374999999992724e+01 7.354041113169538968e-80
4.038749999999993179e+01 7.656869317523403341e-80
4.060124999999993634e+01 5.709295439192951593e-80
4.081499999999994088e+01 8.339885396793938617e-81
4.102874999999991701e+01 -7.108066049377825699e-80
4.124249999999992156e+01 -1.736817946576929088e-79
4.145624999999992610e+01 -2.804339455204759893e-79
4.166999999999993065e+01 -3.602309241632432052e-79
4.188374999999993520e+01 -3.728464559296709343e-79
4.209749999999993975e+01 -2.763988558666564691e-79
4.231124999999991587e+01 -3.949328152408433643e-80
4.252499999999992042e+01 3.431567679034581783e-79
4.273874999999992497e+01 8.345708757993979650e-79
4.295249999999992951e+01 1.343529420861355025e-78
4.316624999999993406e+01 1.722795778066670476e-78
4.337999999999993861e+01 1.783662127173769395e-78
4.359374999999991473e+01 1.331239051463631360e-78
4.380749999999991928e+01 2.209131021494315544e-79
4.402124999999992383e+01 -1.569882522498572134e-78
4.423499999999992838e+01 -3.868291897020356668e-78
4.444874999999993292e+01 -6.252619577236216566e-78
4.466249999999993747e+01 -8.045895875310432583e-78
4.487624999999991360e+01 -8.383566972464486110e-78
4.508999999999991815e+01 -6.374375619851977526e-78
4.530374999999992269e+01 -1.355358978086555449e-78
4.551749999999992724e+01 6.786096955360033161e-78
4.573124999999993179e+01 1.728473162750423698e-77
4.594499999999993634e+01 2.826005115484597293e-77
4.615874999999991246e+01 3.668785206935326247e-77
4.637249999999991701e+01 3.869881115321318299e-77
4.658624999999992156e+01 3.028612366328517252e-77
4.679999999999992610e+01 8.424726602907725957e-78
4.701374999999993065e+01 -2.751658041862629294e-77
4.722749999999993520e+01 -7.433713624469762727e-77
4.744124999999993975e+01 -1.239527954680594959e-76
4.765499999999991587e+01 -1.632404521277235361e-76
4.786874999999992042e+01 -1.752851970994478415e-76
4.808249999999992497e+01 -1.423824231851715087e-76
4.829624999999992951e+01 -5.081129969587128734e-77
4.850999999999993406e+01 1.031144439785361531e-76
4.872374999999993861e+01 3.068356682105094241e-76
4.893749999999991473e+01 5.269043289693352147e-76
4.915124999999991928e+01 7.080475910805629445e-76
4.936499999999992383e+01 7.780770959325018506e-76
4.957874999999992838e+01 6.601574944477464415e-76
4.979249999999993292e+01 2.925778628068288843e-76
5.000624999999993747e+01 -3.459202979363995034e-76
5.021999999999991360e+01 -1.209765531221945764e-75
5.043374999999991815e+01 -2.166162809130582179e-75
5.064749999999992269e+01 -2.989468460852489330e-75
5.086124999999992724e+01 -3.379216391462637150e-75
5.107499999999993179e+01 -3.008293580732436536e-75
5.128874999999993634e+01 -1.602373107587302616e-75
5.150249999999991246e+01 9.566007191481054478e-76
5.171624999999991701e+01 4.520369647825159102e-75
5.192999999999992156e+01 8.585561042800358126e-75
5.214374999999992610e+01 1.226135599393138603e-74
5.235749999999993065e+01 1.432994248543379757e-74
5.257124999999993520e+01 1.342751140403664243e-74
5.278499999999991132e+01 8.353172979301197115e-75
5.299874999999991587e+01 -1.518922964316193993e-75
5.321249999999992042e+01 -1.578936877454874751e-74
5.342624999999992497e+01 -3.265165551104046458e-74
5.363999999999992951e+01 -4.871653124377598235e-74
5.385374999999993406e+01 -5.918841123393070009e-74
5.406749999999991019e+01 -5.851133866489279683e-74
5.428124999999991473e+01 -4.152821361639042862e-74
5.449499999999991928e+01 -5.077036806276749738e-75
5.470874999999992383e+01 5.020672904518921648e-74
5.492249999999992838e+01 1.182756683552843068e-73
5.513624999999993292e+01 1.867688697633787631e-73
5.534999999999990905e+01 2.373973872663270376e-73
5.556374999999991360e+01 2.481070802626963451e-73
5.577749999999991815e+01 1.972553218648803635e-73
5.599124999999992269e+01 6.960534704026666434e-74
5.620499999999992724e+01 -1.366340643097625010e-73
5.641874999999993179e+01 -4.031256627475022870e-73
5.663249999999990791e+01 -6.870193062059231894e-73
5.684624999999991246e+01 -9.210736245086473191e-73
5.705999999999991701e+01 -1.020291150439518681e-72
5.727374999999992156e+01 -8.962543245808088481e-73
5.748749999999992610e+01 -4.788522265483471151e-73
5.770124999999993065e+01 2.569922439065601216e-73
5.791499999999990678e+01 1.264358515645959622e-72
5.812874999999991132e+01 2.404066749242135369e-72
5.834249999999991587e+01 3.439380836996513623e-72
5.855624999999992042e+01 4.053695378593699033e-72
5.876999999999992497e+01 3.896799607394321153e-72
5.898374999999992951e+01 2.660382931034443184e-72
5.919749999999990564e+01 1.762056523428713823e-73
5.941124999999991019e+01 -3.478332018202767530e-72
5.962499999999991473e+01 -7.891027413335721103e-72
5.983874999999991928e+01 -1.227206606800707629e-71
6.005249999999992383e+01 -1.548867438871092910e-71
6.026624999999992838e+01 -1.620211210332408214e-71
6.047999999999990450e+01 -1.311669626448142689e-71
6.069374999999990905e+01 -5.326444183485363679e-72
6.090749999999991360e+01 7.285810966603649681e-72
6.112124999999991815e+01 2.367443903781223912e-71
6.133499999999992269e+01 4.138658893968348724e-71
6.154874999999992724e+01 5.656388330926403807e-71
6.176249999999993179e+01 6.429511694182872228e-71
6.197624999999990791e+01 5.938231281647967365e-71
6.218999999999991246e+01 3.750674574962312962e-71
6.240374999999991701e+01 -3.322606236023036630e-72
6.261749999999992156e+01 -6.127457010836540054e-71
6.283124999999992610e+01 -1.295022857966719036e-70
6.304499999999993065e+01 -1.956699577498158663e-70
6.325874999999990678e+01 -2.426195436271758352e-70
6.347249999999991132e+01 -2.504961742037802672e-70
6.368624999999991587e+01 -2.004315243160218773e-70
6.389999999999992042e+01 -7.955009560958295027e-71
6.411374999999992497e+01 1.133526719511509918e-70
6.432749999999992951e+01 3.625437613366271135e-70
6.454124999999990564e+01 6.319331453678250221e-70
6.475499999999991019e+01 8.650939893842428849e-70
6.496874999999991473e+01 9.901590469860921458e-70
6.518249999999991928e+01 9.304704717009245829e-70
6.539624999999992383e+01 6.208639610869112300e-70
6.560999999999992838e+01 2.808941393900330324e-71
6.582374999999990450e+01 -8.277256435574033784e-70
6.603749999999990905e+01 -1.855194411183258495e-69
6.625124999999991360e+01 -2.883079502068854430e-69
6.646499999999991815e+01 -3.666903914193093069e-69
6.667874999999992269e+01 -3.915590885116577194e-69
6.689249999999992724e+01 -3.340305767862665648e-69
6.710624999999990337e+01 -1.723416365949189155e-69
6.731999999999990791e+01 1.000055546932295702e-69
6.753374999999991246e+01 4.662210242918390034e-69
6.774749999999991701e+01 8.802463002414190202e-69
6.796124999999992156e+01 1.265068295100093933e-68
6.817499999999992610e+01 1.517536218520126259e-68
6.838874999999990223e+01 1.521318936623293853e-68
6.860249999999990678e+01 1.168452093208150468e-68
6.881624999999991132e+01 3.881308445577280521e-69
6.902999999999991587e+01 -8.208404480873419207e-69
6.924374999999992042e+01 -2.359903446048196044e-68
6.945749999999992497e+01 -4.010881025400428326e-68
6.967124999999990109e+01 -5.435405176097788588e-68
6.988499999999990564e+01 -6.202056085665861603e-68
7.009874999999991019e+01 -5.846839025438982146e-68
7.031249999999991473e+01 -3.967330131045734095e-68
7.052624999999991928e+01 -3.431597166435992305e-69
7.073999999999992383e+01 4.933785727641304060e-68
7.095374999999989996e+01 1.134553239539644428e-67
7.116749999999990450e+01 1.788418536391491847e-67
7.138124999999990905e+01 2.307472226394651528e-67
7.159499999999991360e+01 2.511682371560378963e-67
7.180874999999991815e+01 2.216450947140805684e-67
7.202249999999992269e+01 1.273832616653057719e-67
7.223624999999989882e+01 -3.768527101156913506e-68
7.244999999999990337e+01 -2.656773658777494065e-67
7.266374999999990791e+01 -5.305260205825957285e-67
7.287749999999991246e+01 -7.861692339656836329e-67
7.309124999999991701e+01 -9.686482601463811735e-67
7.330499999999992156e+01 -1.003335050533444774e-66
7.351874999999989768e+01 -8.178332987732125796e-67
7.373249999999990223e+01 -3.599943850400354905e-67
7.394624999999990678e+01 3.809685070223351252e-67
7.415999999999991132e+01 1.353907377284920412e-66
7.437374999999991587e+01 2.430819012736548150e-66
7.458749999999992042e+01 3.403591506579389643e-66
7.480124999999992497e+01 3.998296514889406182e-66
7.501499999999990109e+01 3.911305154554003650e-66
7.522874999999990564e+01 2.868175749029341604e-66
7.544249999999991019e+01 7.012406912198246938e-67
7.565624999999991473e+01 -2.564429223155412264e-66
7.586999999999991928e+01 -6.633516090586132052e-66
7.608374999999992383e+01 -1.089355372587351381e-65
7.629749999999989996e+01 -1.442310513213384057e-65
7.651124999999990450e+01 -1.607693605408999189e-65
7.672499999999990905e+01 -1.466116376455348883e-65
7.693874999999991360e+01 -9.195415005804238839e-66
7.715249999999991815e+01 7.631164864694282202e-67
7.736624999999992269e+01 1.478449693460841954e-65
7.757999999999989882e+01 3.129506959658455505e-65
7.779374999999990337e+01 4.746290432715399688e-65
7.800749999999990791e+01 5.933390827650434079e-65
7.822124999999991246e+01 6.229295991444446446e-65
7.843499999999991701e+01 5.187815615116442060e-65
7.864874999999992156e+01 2.490350079285175753e-65
7.886249999999989768e+01 -1.924756783865979410e-65
7.907624999999990223e+01 -7.739459927555269474e-65
7.928999999999990678e+01 -1.417193987754151948e-64
7.950374999999991132e+01 -1.996753586571356488e-64
7.971749999999991587e+01 -2.349827857967930543e-64
7.993124999999992042e+01 -2.299266320124974888e-64
8.014499999999989654e+01 -1.689515196635825995e-64
8.035874999999990109e+01 -4.323635566297933784e-65
8.057249999999990564e+01 1.444353415250296493e-64
8.078624999999991019e+01 3.755469505287413104e-64
8.099999999999991473e+01 6.137504320414509926e-64
8.121374999999991928e+01 8.061316461044619193e-64
8.142749999999989541e+01 8.889168332782927237e-64
8.164124999999989996e+01 7.980790741176580497e-64
8.185499999999990450e+01 4.843225933912705472e-64
8.206874999999990905e+01 -6.933227306308485417e-65
8.228249999999991360e+01 -8.304798444983610759e-64
8.249624999999991815e+01 -1.705028337660389298e-63
8.270999999999989427e+01 -2.534499838176930775e-63
8.292374999999989882e+01 -3.107423503823209278e-63
8.313749999999990337e+01 -3.187768590187299076e-63
8.335124999999990791e+01 -2.560499658884143092e-63
8.356499999999991246e+01 -1.090312874562195128e-63
8.377874999999991701e+01 1.215070712470045483e-63
8.399249999999989313e+01 4.150166680645322803e-63
8.420624999999989768e+01 7.281802665156129929e-63
8.441999999999990223e+01 9.960799028424181217e-63
8.463374999999990678e+01 1.138881287636390693e-62
8.484749999999991132e+01 1.074620241233340974e-62
8.506124999999991587e+01 7.374686721255207295e-63
8.527499999999989200e+01 9.932750050009785626e-64
8.548874999999989654e+01 -8.090206728585855023e-63
8.570249999999990109e+01 -1.882316588547008282e-62
8.591624999999990564e+01 -2.936570195515438309e-62
8.612999999999991019e+01 -3.721492704789490498e-62
8.634374999999991473e+01 -3.953100672779101413e-62
8.655749999999989086e+01 -3.366593040839976969e-62
8.677124999999989541e+01 -1.784908064194852586e-62
8.698499999999989996e+01 8.070299439635761654e-63
8.719874999999990450e+01 4.197464698601229548e-62
8.741249999999990905e+01 7.910952636757435286e-62
8.762624999999991360e+01 1.121856774095947941e-61
8.783999999999991815e+01 1.321045624671450036e-61
8.805374999999989427e+01 1.293728609894406244e-61
8.826749999999989882e+01 9.613617859029642219e-62
8.848124999999990337e+01 2.859307871906993873e-62
8.869499999999990791e+01 -7.062585577340649420e-62
8.890874999999991246e+01 -1.906746224314353638e-61
8.912249999999991701e+01 -3.119340872987287860e-61
8.933624999999989313e+01 -4.072593695114243243e-61
8.954999999999989768e+01 -4.454090427935517819e-61
8.976374999999990223e+01 -3.966694873409514740e-61
8.997749999999990678e+01 -2.401889762483665872e-61
9.019124999999991132e+01 2.803233872775315440e-62
9.040499999999991587e+01 3.880830640157392768e-61
9.061874999999989200e+01 7.919602209790055470e-61
9.083249999999989654e+01 1.164263070243386020e-60
9.104624999999990109e+01 1.409364154060927228e-60
9.125999999999990564e+01 1.425762198976267985e-60
9.147374999999991019e+01 1.126940982955684282e-60
9.168749999999991473e+01 4.663383292855341949e-61
9.190124999999989086e+01 -5.377593872310880596e-61
9.211499999999989541e+01 -1.783057609864876484e-60
9.232874999999989996e+01 -3.076206578306935688e-60
9.254249999999990450e+01 -4.143773314237078237e-60
9.275624999999990905e+01 -4.665166672910569928e-60
9.296999999999991360e+01 -4.327893543592416180e-60
9.318374999999988972e+01 -2.900630378116260795e-60
9.339749999999989427e+01 -3.139951989574435090e-61
9.361124999999989882e+01 3.266387080972583724e-60
9.382499999999990337e+01 7.393623921718025525e-60
9.403874999999990791e+01 1.133990055209947996e-59
9.425249999999991246e+01 1.415975235437178513e-59
9.446624999999988859e+01 1.482424330510515843e-59
9.467999999999989313e+01 1.242100039800174095e-59
9.489374999999989768e+01 6.398615122290661456e-60
9.510749999999990223e+01 -3.183449343155193768e-60
9.532124999999990678e+01 -1.545307682251086463e-59
9.553499999999991132e+01 -2.863346792350641470e-59
9.574874999999988745e+01 -4.011959462680203358e-59
9.596249999999989200e+01 -4.676498413363208423e-59
9.617624999999989654e+01 -4.538869795524330114e-59
9.638999999999990109e+01 -3.346716329929074341e-59
9.660374999999990564e+01 -9.922479253124048695e-60
9.681749999999991019e+01 2.413306811221185236e-59
9.703124999999988631e+01 6.487550304966619839e-59
9.724499999999989086e+01 1.056629326845870424e-58
9.745874999999989541e+01 1.375122381282004828e-58
9.767249999999989996e+01 1.502565136289643357e-58
9.788624999999990450e+01 1.343658255322866668e-58
9.809999999999990905e+01 8.326272204818885186e-59
9.831374999999988518e+01 -4.202473585274868004e-60
9.852749999999988972e+01 -1.216022351992060315e-58
9.874124999999989427e+01 -2.536907515409291570e-58
9.895499999999989882e+01 -3.766571767003223240e-58
9.916874999999990337e+01 -4.603366279040986552e-58
9.938249999999990791e+01 -4.725770124824201162e-58
9.959624999999988404e+01 -3.855601145107545221e-58
9.980999999999988859e+01 -1.833816960146906914e-58
1.000237499999998931e+02 1.303180119690328227e-58
1.002374999999998977e+02 5.263111656568443867e-58
1.004512499999999022e+02 9.471876765371197433e-58
1.006649999999999068e+02 1.309969208410133225e-57
1.008787499999998829e+02 1.515176574421635000e-57
1.010924999999998875e+02 1.462633910005954361e-57
1.013062499999998920e+02 1.072938515070602043e-57
1.015199999999998965e+02 3.119330199124698975e-58
1.017337499999999011e+02 -7.860538857005446925e-58
1.019474999999999056e+02 -2.101636357393424456e-57
1.021612499999999102e+02 -3.426362261245039660e-57
1.023749999999998863e+02 -4.476505793614363466e-57
1.025887499999998909e+02 -4.927899643940525086e-57
1.028024999999998954e+02 -4.471654529282313813e-57
1.030162499999999000e+02 -2.886080442768850881e-57
1.032299999999999045e+02 -1.150197592116905608e-58
1.034437499999999091e+02 3.661979986077847179e-57
1.036574999999998852e+02 7.985553456276314319e-57
1.038712499999998897e+02 1.211702268682791858e-56
1.040849999999998943e+02 1.509899864424422875e-56
1.042987499999998988e+02 1.588410055562757244e-56
1.045124999999999034e+02 1.352804820427556783e-56
1.047262499999999079e+02 7.428318058691149755e-57
1.049399999999998840e+02 -2.426743876061340075e-57
1.051537499999998886e+02 -1.524794640396192517e-56
1.053674999999998931e+02 -2.933296620836504430e-56
1.055812499999998977e+02 -4.210989534304474773e-56
1.057949999999999022e+02 -5.038182454005017906e-56
1.060087499999999068e+02 -5.079057018159100163e-56
1.062224999999998829e+02 -4.047725077780792820e-56
1.064362499999998875e+02 -1.786767539112298939e-56
1.066499999999998920e+02 1.654124063415881789e-56
1.068637499999998965e+02 5.956124762777745556e-56
1.070774999999999011e+02 1.050489049022031228e-55
1.072912499999999056e+02 1.441787668935232321e-55
1.075049999999998818e+02 1.663830001778125874e-55
1.077187499999998863e+02 1.609901318122270328e-55
1.079324999999998909e+02 1.194583057019674176e-55
1.081462499999998954e+02 3.793554134303699818e-56
1.083599999999999000e+02 -8.028318870216029065e-56
1.085737499999999045e+02 -2.229600424348367329e-55
1.087874999999998806e+02 -3.683911426583919407e-55
1.090012499999998852e+02 -4.867100063730319094e-55
1.092149999999998897e+02 -5.433759409904361267e-55
1.094287499999998943e+02 -5.048663619313757285e-55
1.096424999999998988e+02 -3.461308776652104830e-55
1.098562499999999034e+02 -5.883803331725396063e-56
1.100699999999998795e+02 3.410580251912277212e-55
1.102837499999998840e+02 8.082689701836694857e-55
1.104974999999998886e+02 1.267581351506409605e-54
1.107112499999998931e+02 1.619388156101470027e-54
1.109249999999998977e+02 1.752285418281661753e-54
1.111387499999999022e+02 1.562505682231091022e-54
1.113524999999998784e+02 9.784350707409139931e-55
1.115662499999998829e+02 -1.321692890958415043e-56
1.117799999999998875e+02 -1.344552815518905081e-54
1.119937499999998920e+02 -2.852886526138770853e-54
1.122074999999998965e+02 -4.282449267322785306e-54
1.124212499999999011e+02 -5.306278329613379927e-54
1.126349999999998772e+02 -5.570571459363262425e-54
1.128487499999998818e+02 -4.759829202382348955e-54
1.130624999999998863e+02 -2.676154123868586674e-54
1.132762499999998909e+02 6.791613534077804876e-55
1.134899999999998954e+02 5.038137218667747190e-54
1.137037499999999000e+02 9.831662142133673242e-54
1.139174999999998761e+02 1.420653094943312527e-53
1.141312499999998806e+02 1.710779155076588373e-53
1.143449999999998852e+02 1.743116935089783619e-53
1.145587499999998897e+02 1.423722451343951113e-53
1.147724999999998943e+02 7.003133673780939054e-54
1.149862499999998988e+02 -4.127997145712806951e-54
1.151999999999998749e+02 -1.815329804664675400e-53
1.154137499999998795e+02 -3.313089536391932910e-53
1.156274999999998840e+02 -4.627012487352886713e-53
1.158412499999998886e+02 -5.422887902602250807e-53
1.160549999999998931e+02 -5.362498473401425306e-53
1.162687499999998977e+02 -4.172606260360930018e-53
1.164824999999999022e+02 -1.723325060827068073e-53
1.166962499999998784e+02 1.897342171328394222e-53
1.169099999999998829e+02 6.329589638378545829e-53
1.171237499999998875e+02 1.092654359397260108e-52
1.173374999999998920e+02 1.479355091607576074e-52
1.175512499999998965e+02 1.689179338463678066e-52
1.177649999999999011e+02 1.620582061224448707e-52
1.179787499999998772e+02 1.196117221004822700e-52
1.181924999999998818e+02 3.863336101416911154e-53
1.184062499999998863e+02 -7.684513231487074607e-53
1.186199999999998909e+02 -2.143699665133019068e-52
1.188337499999998954e+02 -3.528893869019172276e-52
1.190474999999999000e+02 -4.642951926885434097e-52
1.192612499999998761e+02 -5.169192786281537263e-52
1.194749999999998806e+02 -4.808950524979481061e-52
1.196887499999998852e+02 -3.348790223774477133e-52
1.199024999999998897e+02 -7.318457980983213975e-53
1.201162499999998943e+02 2.880093150388736389e-52
1.203299999999998988e+02 7.069493559973202040e-52
1.205437499999998749e+02 1.116661979496471319e-51
1.207574999999998795e+02 1.430595131864908575e-51
1.209712499999998840e+02 1.554074295419866031e-51
1.211849999999998886e+02 1.401071021066581509e-51
1.213987499999998931e+02 9.145314727014058142e-52
1.216124999999998977e+02 8.722692004383615922e-53
1.218262499999998738e+02 -1.020978473490855590e-51
1.220399999999998784e+02 -2.274106472097821122e-51
1.222537499999998829e+02 -3.463731811540145438e-51
1.224674999999998875e+02 -4.328576188545611271e-51
1.226812499999998920e+02 -4.591024967703337220e-51
1.228949999999998965e+02 -4.008415177143449249e-51
1.231087499999998727e+02 -2.433255661960280794e-51
1.233224999999998772e+02 1.271004389186282813e-52
1.235362499999998818e+02 3.463644719204855735e-51
1.237499999999998863e+02 7.145276063662116483e-51
1.239637499999998909e+02 1.053706144725988553e-50
1.241774999999998954e+02 1.286545450626054588e-50
1.243912499999998715e+02 1.333173317128454386e-50
1.246049999999998761e+02 1.126551329140598249e-50
1.248187499999998806e+02 6.299563757844749115e-51
1.250324999999998852e+02 -1.462920900854465251e-51
1.252462499999998897e+02 -1.132472309988264318e-50
1.254599999999998943e+02 -2.195299333387738699e-50
1.256737499999998704e+02 -3.145302275225919352e-50
1.258874999999998749e+02 -3.757761535098689191e-50
1.261012499999998795e+02 -3.807102431329977989e-50
1.263149999999998840e+02 -3.111895193202895513e-50
1.265287499999998886e+02 -1.584612428858264251e-50
1.267424999999998931e+02 7.224253625429849591e-51