2.024999999999579359e-01 1.450648707780502460e-116
4.162499999999482725e-01 7.803157321273226647e-116
6.299999999999528200e-01 1.714996278132899542e-115
8.437499999999573674e-01 2.829329557657721471e-115
1.057499999999947704e+00 3.799288226393891286e-115
1.271249999999952252e+00 4.036898414792640347e-115
1.484999999999956799e+00 2.690205555268866510e-115
1.698749999999947136e+00 -1.237375511282181743e-115
1.912499999999951683e+00 -8.583143886301838259e-115
2.126249999999956231e+00 -1.948995500218523102e-114
2.339999999999946567e+00 -3.265082000157326196e-114
2.553749999999951115e+00 -4.445355169551526479e-114
2.767499999999955662e+00 -4.830814864137712821e-114
2.981249999999945999e+00 -3.463440867781163434e-114
3.194999999999950546e+00 7.840597728619303503e-115
3.408749999999955094e+00 8.877401235494050167e-114
3.622499999999945430e+00 2.103939812294702279e-113
3.836249999999949978e+00 3.593114418920750964e-113
4.049999999999954525e+00 4.972492535520390700e-113
4.263749999999944862e+00 5.536879381233939471e-113
4.477499999999949409e+00 4.254510982618368769e-113
4.691249999999953957e+00 -9.984587490855026262e-115
4.904999999999944293e+00 -8.601781767847208469e-113
5.118749999999948841e+00 -2.157316014350393722e-112
5.332499999999953388e+00 -3.773021166188783805e-112
5.546249999999943725e+00 -5.321528250819479888e-112
5.759999999999948272e+00 -6.081598653672149681e-112
5.973749999999952820e+00 -4.987824045133068583e-112
6.187499999999943157e+00 -7.594820266736383658e-113
6.401249999999947704e+00 7.760080780413209266e-112
6.614999999999952252e+00 2.100211419583418581e-111
6.828749999999942588e+00 3.782064583719099765e-111
7.042499999999947136e+00 5.451706957237924528e-111
7.256249999999951683e+00 6.403529398969588535e-111
7.469999999999942020e+00 5.581773449761209666e-111
7.683749999999946567e+00 1.698181926667272178e-111
7.897499999999951115e+00 -6.447495511904050932e-111
8.111249999999941451e+00 -1.939342993059080435e-110
8.324999999999945999e+00 -3.619631880884909183e-110
8.538749999999950546e+00 -5.348302195129722921e-110
8.752499999999940883e+00 -6.464602420466301143e-110
8.966249999999945430e+00 -5.963897794141492985e-110
9.179999999999949978e+00 -2.598796565078903778e-110
9.393749999999940314e+00 4.831653931455221613e-110
9.607499999999944862e+00 1.695590307545041723e-109
9.821249999999949409e+00 3.307106981611637105e-109
1.003499999999993975e+01 5.025280815640103640e-109
1.024874999999994429e+01 6.257643543391385292e-109
1.046249999999994884e+01 6.085790897337362091e-109
1.067624999999993918e+01 3.346910493799079765e-109
1.088999999999994373e+01 -3.116798645978066678e-109
1.110374999999994827e+01 -1.399509621948697250e-108
1.131749999999993861e+01 -2.883283888069427727e-108
1.153124999999994316e+01 -4.522343528011651448e-108
1.174499999999994770e+01 -5.807960666221234721e-108
1.195874999999993804e+01 -5.933381962082854560e-108
1.217249999999994259e+01 -3.855047533257580526e-108
1.238624999999994714e+01 1.501805196744645073e-108
1.259999999999993747e+01 1.085154455762521172e-107
1.281374999999994202e+01 2.396647766258724497e-107
1.302749999999994657e+01 3.897145842627725521e-107
1.324124999999995111e+01 5.168435554175330953e-107
1.345499999999994145e+01 5.529515664401593290e-107
1.366874999999994600e+01 4.078845565029527435e-107
1.388249999999995055e+01 -1.437577933130013059e-108
1.409624999999994088e+01 -7.838864116251498715e-107
1.430999999999994543e+01 -1.896581183833410149e-106
1.452374999999994998e+01 -3.214735693512816909e-106
1.473749999999994031e+01 -4.409400586609070299e-106
1.495124999999994486e+01 -4.928245377920420854e-106
1.516499999999994941e+01 -4.021627363989191381e-106
1.537874999999993975e+01 -8.642060974334546244e-107
1.559249999999994429e+01 5.196542993862206807e-106
1.580624999999994884e+01 1.425612213623025120e-105
1.601999999999993918e+01 2.536820253451006467e-105
1.623374999999994373e+01 3.605997566241139672e-105
1.644749999999994827e+01 4.202854020885963959e-105
1.666124999999993861e+01 3.727521974630753501e-105
1.687499999999994316e+01 1.497506788388141729e-105
1.708874999999994770e+01 -3.065946934057225997e-105
1.730249999999993804e+01 -1.014260158729379822e-104
1.751624999999994259e+01 -1.913237813225115931e-104
1.772999999999994714e+01 -2.826191276461692954e-104
1.794374999999993747e+01 -3.431298512102269711e-104
1.815749999999994202e+01 -3.266700444381089471e-104
1.837124999999994657e+01 -1.789446944683999822e-104
1.858499999999993690e+01 1.490383808244318347e-104
1.879874999999994145e+01 6.791166597155268058e-104
1.901249999999994600e+01 1.377114761366928851e-103
1.922624999999993634e+01 2.122046757813243382e-103
1.943999999999994088e+01 2.683007402700261191e-103
1.965374999999994543e+01 2.717923855948257085e-103
1.986749999999993577e+01 1.811211299869759645e-103
2.008124999999994031e+01 -4.337130531959325008e-104
2.029499999999994486e+01 -4.238728916993428832e-103
2.050874999999993520e+01 -9.440109704155795607e-103
2.072249999999993975e+01 -1.525604195817378737e-102
2.093624999999994429e+01 -2.009894049147686445e-102
2.114999999999993463e+01 -2.153240059145011217e-102
2.136374999999993918e+01 -1.649547154050387580e-102
2.157749999999994373e+01 -1.913250664629496218e-103
2.179124999999993406e+01 2.423556627976868156e-102
2.200499999999993861e+01 6.143220242294412557e-102
2.221874999999994316e+01 1.049251064579055692e-101
2.243249999999993349e+01 1.442712088846302918e-101
2.264624999999993804e+01 1.627900763361727760e-101
2.285999999999994259e+01 1.387848700140656444e-101
2.307374999999993292e+01 4.938822925065079649e-102
2.328749999999993747e+01 -1.223993670981841805e-101
2.350124999999994202e+01 -3.776067888760238210e-101
2.371499999999993236e+01 -6.894019724105430993e-101
2.392874999999993690e+01 -9.922194253241973949e-101
2.414249999999994145e+01 -1.176361103175671152e-100
2.435624999999993179e+01 -1.093817839228710973e-100
2.456999999999993634e+01 -5.812955794619255528e-101
2.478374999999994088e+01 4.952093092713631282e-101
2.499749999999993122e+01 2.174214560494046514e-100
2.521124999999993577e+01 4.318156959857449205e-100
2.542499999999994031e+01 6.535554708007283100e-100
2.563874999999993065e+01 8.134134411356393084e-100
2.585249999999993520e+01 8.142327885444172445e-100
2.606624999999993975e+01 5.439505508461512048e-100
2.627999999999994429e+01 -9.732555915809143055e-101
2.649374999999993463e+01 -1.155520965919141012e-99
2.670749999999993918e+01 -2.569875975693029287e-99
2.692124999999994373e+01 -4.119353363457787339e-99
2.713499999999993406e+01 -5.385388516049895811e-99
2.734874999999993861e+01 -5.754521556156727042e-99
2.756249999999994316e+01 -4.487253041058487934e-99
2.777624999999993349e+01 -8.754396741969801513e-100
2.798999999999993804e+01 5.503571572265904209e-99
2.820374999999994259e+01 1.445419904991651200e-98
2.841749999999993292e+01 2.480743541265004390e-98
2.863124999999993747e+01 3.414443089944796018e-98
2.884499999999994202e+01 3.874204286570192908e-98
2.905874999999993236e+01 3.390663630449924801e-98
2.927249999999993690e+01 1.484658628465282835e-98
2.948624999999994145e+01 -2.184137529690647916e-98
2.969999999999993179e+01 -7.614628181555503095e-98
2.991374999999993634e+01 -1.423756186241663915e-97
3.012749999999994088e+01 -2.072189626755703441e-97
3.034124999999993122e+01 -2.489840736838079204e-97
3.055499999999993577e+01 -2.390206488145804352e-97
3.076874999999994031e+01 -1.463073376593190255e-97
3.098249999999993065e+01 5.420085349980433189e-98
3.119624999999993520e+01 3.696825962955570671e-97
3.140999999999993975e+01 7.755075199309010666e-97
3.162374999999993008e+01 1.202347066963721908e-96
3.183749999999993463e+01 1.529111938446364650e-96
3.205124999999993918e+01 1.587707822567484873e-96
3.226499999999992951e+01 1.185699119141741960e-96
3.247874999999993406e+01 1.512038225992977996e-97
3.269249999999993861e+01 -1.599912633902179459e-96
3.290624999999992895e+01 -3.981452628687566251e-96
3.311999999999993349e+01 -6.655034553537749532e-96
3.333374999999993804e+01 -8.975066175724853661e-96
3.354749999999992838e+01 -9.994701056998526206e-96
3.376124999999993292e+01 -8.569382110663170852e-96
3.397499999999993747e+01 -3.587129767028238720e-96
3.418874999999992781e+01 5.666445126998739165e-96
3.440249999999993236e+01 1.903726697184739357e-95
3.461624999999993690e+01 3.500568932320694800e-95
3.482999999999992724e+01 5.030033502775932609e-95
3.504374999999993179e+01 5.981075852072281222e-95
3.525749999999993634e+01 5.701078395807977244e-95
3.547124999999992667e+01 3.507786254384715315e-95
3.568499999999993122e+01 -1.120590761960790960e-95
3.589874999999993577e+01 -8.287234155588620212e-95
3.611249999999992610e+01 -1.738763415994565026e-94
3.632624999999993065e+01 -2.685871496344996180e-94
3.653999999999993520e+01 -3.406569927486746117e-94
3.675374999999992554e+01 -3.544471235922479170e-94
3.696749999999993008e+01 -2.701289503627399494e-94
3.718124999999993463e+01 -5.313944962377021984e-95
3.739499999999992497e+01 3.122367711652650318e-94
3.760874999999992951e+01 8.067666514939671032e-94
3.782249999999993406e+01 1.360975709627842836e-93
3.803624999999993861e+01 1.845729821179610162e-93
3.824999999999994316e+01 2.075010125343119377e-93
3.846374999999991928e+01 1.827298472576558854e-93
3.867749999999992383e+01 8.902301051133489153e-94
3.889124999999992838e+01 -8.710145222677989411e-94
3.910499999999993292e+01 -3.427884966569793160e-93
3.931874999999993747e+01 -6.500375141539540424e-93
3.953249999999994202e+01 -9.491382738949192558e-93
3.974624999999991815e+01 -1.147598267004928390e-92
3.995999999999992269e+01 -1.128075593167635409e-92
4.017374999999992724e+01 -7.682175781773401594e-93
4.038749999999993179e+01 2.651506321749024308e-94
4.060124999999993634e+01 1.279141079296106938e-92
4.081499999999994088e+01 2.893059240327161941e-92
4.102874999999991701e+01 4.611042515594887896e-92
4.124249999999992156e+01 5.997298932144225780e-92
4.145624999999992610e+01 6.460955569204590005e-92
4.166999999999993065e+01 5.337722304277615657e-92
4.188374999999993520e+01 2.039135055428952635e-92
4.209749999999993975e+01 -3.735428728523921790e-92
4.231124999999991587e+01 -1.174954359099850835e-91
4.252499999999992042e+01 -2.099392192156683665e-91
4.273874999999992497e+01 -2.953895301574948265e-91
4.295249999999992951e+01 -3.456696166985552050e-91
4.316624999999993406e+01 -3.267489231783560287e-91
4.337999999999993861e+01 -2.051121887402874899e-91
4.359374999999991473e+01 4.248951062488009546e-92
4.380749999999991928e+01 4.168027991126638080e-91
4.402124999999992383e+01 8.834409566938475246e-91
4.423499999999992838e+01 1.363197083280476018e-90
4.444874999999993292e+01 1.729624055055765533e-90
4.466249999999993747e+01 1.818500577373130171e-90
4.487624999999991360e+01 1.452961798006429978e-90
4.508999999999991815e+01 4.857241589820854754e-91
4.530374999999992269e+01 -1.144165382378926987e-90
4.551749999999992724e+01 -3.348031316709415834e-90
4.573124999999993179e+01 -5.831743677019164331e-90
4.594499999999993634e+01 -8.066724378325290596e-90
4.615874999999991246e+01 -9.309928248025397332e-90
4.637249999999991701e+01 -8.693066043346715935e-90
4.658624999999992156e+01 -5.392908758844891072e-90
4.679999999999992610e+01 1.121527233396333155e-90
4.701374999999993065e+01 1.079226841252846298e-89
4.722749999999993520e+01 2.268105928540237350e-89
4.744124999999993975e+01 3.476501194140719552e-89
4.765499999999991587e+01 4.391888569696717015e-89
4.786874999999992042e+01 4.618386645259465200e-89
4.808249999999992497e+01 3.739606574254965515e-89
4.829624999999992951e+01 1.418825481102887917e-89
4.850999999999993406e+01 -2.471470776912481890e-89
4.872374999999993861e+01 -7.710413466252624044e-89
4.893749999999991473e+01 -1.361200100357590946e-88
4.915124999999991928e+01 -1.897264641955286364e-88
4.936499999999992383e+01 -2.212838336342369914e-88
4.957874999999992838e+01 -2.116027207845676551e-88
4.979249999999993292e+01 -1.426629185933684658e-88
5.000624999999993747e+01 -2.832785232802870492e-90
5.021999999999991360e+01 2.070442343968797844e-88
5.043374999999991815e+01 4.678536390807827614e-88
5.064749999999992269e+01 7.383306236478003556e-88
5.086124999999992724e+01 9.549882163973225321e-88
5.107499999999993179e+01 1.037641768561449725e-87
5.128874999999993634e+01 9.017109327512201832e-88
5.150249999999991246e+01 4.772954893404534789e-88
5.171624999999991701e+01 -2.666926631537497082e-88
5.192999999999992156e+01 -1.297096458812127346e-87
5.214374999999992610e+01 -2.495516246951746479e-87
5.235749999999993065e+01 -3.648882153493044516e-87
5.257124999999993520e+01 -4.458940442256494251e-87
5.278499999999991132e+01 -4.576468009919280667e-87
5.299874999999991587e+01 -3.662421335139680424e-87
5.321249999999992042e+01 -1.472594480074960480e-87
5.342624999999992497e+01 2.044704950691729250e-87
5.363999999999992951e+01 6.655765436640556641e-87
5.385374999999993406e+01 1.177701814755770798e-86
5.406749999999991019e+01 1.646506137833990850e-86
5.428124999999991473e+01 1.948426967911117025e-86
5.449499999999991928e+01 1.946563497235416666e-86
5.470874999999992383e+01 1.515451879151668380e-86
5.492249999999992838e+01 5.724184531185102292e-87
5.513624999999993292e+01 -8.890224928118165251e-87
5.534999999999990905e+01 -2.770128243508980156e-86
5.556374999999991360e+01 -4.849609766044762508e-86
5.577749999999991815e+01 -6.784978945468065921e-86
5.599124999999992269e+01 -8.137443859765542612e-86
5.620499999999992724e+01 -8.421664431388976112e-86
5.641874999999993179e+01 -7.177181504667520594e-86
5.663249999999990791e+01 -4.053902852289082058e-86
5.684624999999991246e+01 1.099113540076055767e-86
5.705999999999991701e+01 8.153117817063549880e-86
5.727374999999992156e+01 1.663684677040298952e-85
5.748749999999992610e+01 2.569657605953021542e-85
5.770124999999993065e+01 3.407949416089761216e-85
5.791499999999990678e+01 4.013881881711258551e-85
5.812874999999991132e+01 4.186326174931452639e-85
5.834249999999991587e+01 3.694652797988073864e-85
5.855624999999992042e+01 2.293452484815134461e-85
5.876999999999992497e+01 -2.485727684037456779e-86
5.898374999999992951e+01 -4.097138076753655028e-85
5.919749999999990564e+01 -9.270162675695930909e-85
5.941124999999991019e+01 -1.552115373452468522e-84
5.962499999999991473e+01 -2.219507484394980670e-84
5.983874999999991928e+01 -2.808097643132017571e-84
6.005249999999992383e+01 -3.130865822485361640e-84
6.026624999999992838e+01 -2.936100312044831877e-84
6.047999999999990450e+01 -1.929159107281978166e-84
6.069374999999990905e+01 1.762259789403573914e-85
6.090749999999991360e+01 3.571047143291772665e-84
6.112124999999991815e+01 8.229559807397192814e-84
6.133499999999992269e+01 1.376604109828662773e-83
6.154874999999992724e+01 1.929826266919632676e-83
6.176249999999993179e+01 2.336349995333103337e-83
6.197624999999990791e+01 2.394744506643467224e-83
6.218999999999991246e+01 1.869185911975800879e-83
6.240374999999991701e+01 5.335774895130773600e-84
6.261749999999992156e+01 -1.758940506971157738e-83
6.283124999999992610e+01 -4.985256540466045210e-83
6.304499999999993065e+01 -8.853276368973160588e-83
6.325874999999990678e+01 -1.271790744319858175e-82
6.347249999999991132e+01 -1.554507192455788901e-82
6.368624999999991587e+01 -1.596279819987741555e-82
6.389999999999992042e+01 -1.243678449954426561e-82
6.411374999999992497e+01 -3.594526596713658700e-83
6.432749999999992951e+01 1.130573576507020568e-82
6.454124999999990564e+01 3.180774380661003311e-82
6.475499999999991019e+01 5.569210108050488827e-82
6.496874999999991473e+01 7.857016361166756527e-82
6.518249999999991928e+01 9.383806982617571243e-82
6.539624999999992383e+01 9.320520464378460626e-82
6.560999999999992838e+01 6.797269605851070106e-82
6.582374999999990450e+01 1.112938154940451936e-82
6.603749999999990905e+01 -7.985284127645469925e-82
6.625124999999991360e+01 -1.998960803324150487e-81
6.646499999999991815e+01 -3.335268808186650031e-81
6.667874999999992269e+01 -4.533457657897071053e-81
6.689249999999992724e+01 -5.208374123567240546e-81
6.710624999999990337e+01 -4.905503437170518418e-81
6.731999999999990791e+01 -3.183190678660654703e-81
6.753374999999991246e+01 2.651997729976890310e-82
6.774749999999991701e+01 5.460507710620729210e-81
6.796124999999992156e+01 1.198313283349889816e-80
6.817499999999992610e+01 1.885305407955234729e-80
6.838874999999990223e+01 2.449370811503753966e-80
6.860249999999990678e+01 2.683207080704810152e-80
6.881624999999991132e+01 2.357829586610145956e-80
6.902999999999991587e+01 1.270340303643093979e-80
6.924374999999992042e+01 -6.908646750245853225e-81
6.945749999999992497e+01 -3.471519137100981807e-80
6.967124999999990109e+01 -6.782055988703037919e-80
6.988499999999990564e+01 -1.005370886990448336e-79
7.009874999999991019e+01 -1.244403469025409388e-79
7.031249999999991473e+01 -1.291481093374470206e-79
7.052624999999991928e+01 -1.039797368565247813e-79
7.073999999999992383e+01 -4.050418132242786157e-80
7.095374999999989996e+01 6.423753593169485015e-80
7.116749999999990450e+01 2.043244172815515390e-79
7.138124999999990905e+01 3.621335600420925071e-79
7.159499999999991360e+01 5.070970845711098083e-79
7.180874999999991815e+01 5.971062261987552448e-79
7.202249999999992269e+01 5.834721639465435994e-79
7.223624999999989882e+01 4.198902192180314089e-79
7.244999999999990337e+01 7.506113612159804282e-80
7.266374999999990791e+01 -4.524542032312236064e-79
7.287749999999991246e+01 -1.119793771221004035e-78
7.309124999999991701e+01 -1.829545005297861594e-78
7.330499999999992156e+01 -2.428177531039146195e-78
7.351874999999989768e+01 -2.717572970518888358e-78
7.373249999999990223e+01 -2.482861158142037819e-78
7.394624999999990678e+01 -1.537220223565268431e-78
7.415999999999991132e+01 2.195795565317884640e-79
7.437374999999991587e+01 2.736953124819571598e-78
7.458749999999992042e+01 5.756717812488443467e-78
7.480124999999992497e+01 8.780981476138075241e-78
7.501499999999990109e+01 1.108367351140566184e-77
7.522874999999990564e+01 1.178257559743992567e-77
7.544249999999991019e+01 9.981542261578142407e-78
7.565624999999991473e+01 4.979894749586798601e-78
7.586999999999991928e+01 -3.471625941436886534e-78
7.608374999999992383e+01 -1.490932651246112717e-77
7.629749999999989996e+01 -2.794984134623636755e-77
7.651124999999990450e+01 -4.021197002415846105e-77
7.672499999999990905e+01 -4.844225933831968047e-77
7.693874999999991360e+01 -4.890354576198182932e-77
7.715249999999991815e+01 -3.804861452351641406e-77
7.736624999999992269e+01 -1.344279571720307043e-77
7.757999999999989882e+01 2.517546618489119346e-77
7.779374999999990337e+01 7.488745909892339545e-77
7.800749999999990791e+01 1.289012023626860353e-76
7.822124999999991246e+01 1.764704671991377960e-76
7.843499999999991701e+01 2.037062436824782462e-76
7.864874999999992156e+01 1.954702550146604440e-76
7.886249999999989768e+01 1.383665988012400341e-76
7.907624999999990223e+01 2.459766240329499115e-77
7.928999999999990678e+01 -1.438490606005416424e-76
7.950374999999991132e+01 -3.515162572499903668e-76
7.971749999999991587e+01 -5.673571534791373887e-76
7.993124999999992042e+01 -7.453221805676202750e-76
8.014499999999989654e+01 -8.286396432561198020e-76
8.035874999999990109e+01 -7.583339106607354823e-76
8.057249999999990564e+01 -4.857745065350907978e-76
8.078624999999991019e+01 1.195760478187746797e-77
8.099999999999991473e+01 7.162365517456434647e-76
8.121374999999991928e+01 1.553998320378569585e-75
8.142749999999989541e+01 2.391901089901093316e-75
8.164124999999989996e+01 3.041707027133108581e-75
8.185499999999990450e+01 3.280187031528450569e-75
8.206874999999990905e+01 2.884896429098168900e-75
8.228249999999991360e+01 1.684143923855705036e-75
8.249624999999991815e+01 -3.843595289558322879e-76
8.270999999999989427e+01 -3.215785696630254520e-75
8.292374999999989882e+01 -6.494573518440339770e-75
8.313749999999990337e+01 -9.680080953722723848e-75
8.335124999999990791e+01 -1.203608905350721782e-74
8.356499999999991246e+01 -1.271472142996573890e-74
8.377874999999991701e+01 -1.089746897683311424e-74
8.399249999999989313e+01 -5.984566062798418598e-75
8.420624999999989768e+01 2.189879851789727379e-75
8.441999999999990223e+01 1.315372184991356042e-74
8.463374999999990678e+01 2.565171464805334904e-74
8.484749999999991132e+01 3.761298284947258319e-74
8.506124999999991587e+01 4.628017781276519804e-74
8.527499999999989200e+01 4.853315115232717923e-74
8.548874999999989654e+01 4.141070971036985838e-74
8.570249999999990109e+01 2.279343342767763158e-74
8.591624999999990564e+01 -7.836777393360665418e-75
8.612999999999991019e+01 -4.869118567988137872e-74
8.634374999999991473e+01 -9.518896018950675285e-74
8.655749999999989086e+01 -1.398716926312706109e-73
8.677124999999989541e+01 -1.728779196006309774e-73
8.698499999999989996e+01 -1.830789224605213235e-73
8.719874999999990450e+01 -1.598772196008679537e-73
8.741249999999990905e+01 -9.553522496252516873e-74
8.762624999999991360e+01 1.225041571117110913e-74
8.783999999999991815e+01 1.579583476496282648e-73
8.805374999999989427e+01 3.265720784945189793e-73
8.826749999999989882e+01 4.932004360595259180e-73
8.848124999999990337e+01 6.244928662001083644e-73
8.869499999999990791e+01 6.821669051165389637e-73
8.890874999999991246e+01 6.286589801743733475e-73
8.912249999999991701e+01 4.345078377619338294e-73
8.933624999999989313e+01 8.663195120991354828e-74
8.954999999999989768e+01 -4.037592112969745693e-73
8.976374999999990223e+01 -9.951878185329522297e-73
8.997749999999990678e+01 -1.613537014263377058e-72
9.019124999999991132e+01 -2.154789245401976906e-72
9.040499999999991587e+01 -2.493890867319527044e-72
9.061874999999989200e+01 -2.499971754245797937e-72
9.083249999999989654e+01 -2.057126388965634082e-72
9.104624999999990109e+01 -1.088834671642368543e-72
9.125999999999990564e+01 4.169615453914230863e-73
9.147374999999991019e+01 2.385916062145727831e-72
9.168749999999991473e+01 4.642635703456078622e-72
9.190124999999989086e+01 6.907329305192552310e-72
9.211499999999989541e+01 8.806983209426081236e-72
9.232874999999989996e+01 9.903025701799787514e-72
9.254249999999990450e+01 9.735814783823073071e-72
9.275624999999990905e+01 7.884514713281673794e-72
9.296999999999991360e+01 4.039223219784144129e-72
9.318374999999988972e+01 -1.919305085559911208e-72
9.339749999999989427e+01 -9.838353948080396894e-72
9.361124999999989882e+01 -1.921779407092372555e-71
9.382499999999990337e+01 -2.914976440565911126e-71
9.403874999999990791e+01 -3.828542580809594811e-71
9.425249999999991246e+01 -4.484440123637707408e-71
9.446624999999988859e+01 -4.668692095323360968e-71
9.467999999999989313e+01 -4.147275450026146615e-71
9.489374999999989768e+01 -2.693265484520533001e-71
9.510749999999990223e+01 -1.274162277260223005e-72
9.532124999999990678e+01 3.626958501336857815e-71
9.553499999999991132e+01 8.476564234993280718e-71
9.574874999999988745e+01 1.408409837392845047e-70
9.596249999999989200e+01 1.979921256270772912e-70
9.617624999999989654e+01 2.461268213525760062e-70
9.638999999999990109e+01 2.715841217079405771e-70
9.660374999999990564e+01 2.579224610535622043e-70
9.681749999999991019e+01 1.877631755309322703e-70
9.703124999999988631e+01 4.590095732641508193e-71
9.724499999999989086e+01 -1.762824114760162433e-70
9.745874999999989541e+01 -4.753541460868618908e-70
9.767249999999989996e+01 -8.299676423348522303e-70
9.788624999999990450e+01 -1.195722545409381920e-69
9.809999999999990905e+01 -1.502337089510919519e-69
9.831374999999988518e+01 -1.655070084991031280e-69
9.852749999999988972e+01 -1.542406672173510552e-69
9.874124999999989427e+01 -1.051659532922013439e-69
9.895499999999989882e+01 -9.318410848616728031e-71
9.916874999999990337e+01 1.367726783751183526e-69
9.938249999999990791e+01 3.274489117391931045e-69
9.959624999999988404e+01 5.444373716725534811e-69
9.980999999999988859e+01 7.543891870138341772e-69
1.000237499999998931e+02 9.085347006884568501e-69
1.002374999999998977e+02 9.456250409230798236e-69
1.004512499999999022e+02 7.991747776531414289e-69
1.006649999999999068e+02 4.095508954870067775e-69
1.008787499999998829e+02 -2.593801203340931793e-69
1.010924999999998875e+02 -1.200521997469306512e-68
1.013062499999998920e+02 -2.343651490026569142e-68
1.015199999999998965e+02 -3.539759791811722340e-68
1.017337499999999011e+02 -4.555254969558361636e-68
1.019474999999999056e+02 -5.082178341886986166e-68
1.021612499999999102e+02 -4.769974122403927479e-68
1.023749999999998863e+02 -3.282177739081175892e-68
1.025887499999998909e+02 -3.773957469231546272e-69
1.028024999999998954e+02 3.991825701576225627e-68
1.030162499999999000e+02 9.575745480107153468e-68
1.032299999999999045e+02 1.574072499304678173e-67
1.034437499999999091e+02 2.142626855323044412e-67
1.036574999999998852e+02 2.517608016039081621e-67
1.038712499999998897e+02 2.527113736285835952e-67
1.040849999999998943e+02 1.998315397544716849e-67
1.042987499999998988e+02 7.948552881779116347e-68
1.045124999999999034e+02 -1.136370494518914726e-67
1.047262499999999079e+02 -3.715032103624682273e-67
1.049399999999998840e+02 -6.683298714639368236e-67
1.051537499999998886e+02 -9.580415002564523848e-67
1.053674999999998931e+02 -1.175006885287395532e-66
1.055812499999998977e+02 -1.239390785180923703e-66
1.057949999999999022e+02 -1.068044825759954767e-66
1.060087499999999068e+02 -5.910593910726870407e-67
1.062224999999998829e+02 2.270935805335681759e-67
1.064362499999998875e+02 1.364388271874741252e-66
1.066499999999998920e+02 2.720198653272925979e-66
1.068637499999998965e+02 4.101923571871593926e-66
1.070774999999999011e+02 5.225616288077614492e-66
1.072912499999999056e+02 5.736696087037528902e-66
1.075049999999998818e+02 5.255117197841791575e-66
1.077187499999998863e+02 3.445959293677685699e-66
1.079324999999998909e+02 1.112854872011527358e-67
1.081462499999998954e+02 -4.707333884576539376e-66
1.083599999999999000e+02 -1.063317502626156702e-65
1.085737499999999045e+02 -1.688926516137839356e-65
1.087874999999998806e+02 -2.229113732893139728e-65
1.090012499999998852e+02 -2.532398741769918442e-65
1.092149999999998897e+02 -2.432394800385131009e-65
1.094287499999998943e+02 -1.776914913804078499e-65
1.096424999999998988e+02 -4.664965019238219132e-66
1.098562499999999034e+02 1.501910450355179221e-65
1.100699999999998795e+02 3.993265713688730653e-65
1.102837499999998840e+02 6.704550334449851191e-65
1.104974999999998886e+02 9.158040787585806404e-65
1.107112499999998931e+02 1.072893508298684971e-64
1.109249999999998977e+02 1.071585251044491897e-64
1.111387499999999022e+02 8.457116561141125661e-65
1.113524999999998784e+02 3.487157720833137683e-65
1.115662499999998829e+02 -4.283544625333434830e-65
1.117799999999998875e+02 -1.439344823801994535e-64
1.119937499999998920e+02 -2.569903373459861559e-64
1.122074999999998965e+02 -3.633390597443019629e-64
1.124212499999999011e+02 -4.380354621170186337e-64
1.126349999999998772e+02 -4.525123598501694512e-64
1.128487499999998818e+02 -3.790888296559507670e-64
1.130624999999998863e+02 -1.971291886679171161e-64
1.132762499999998909e+02 9.977505724640070632e-65
1.134899999999998954e+02 4.966978776777479242e-64
1.137037499999999000e+02 9.518702288166712053e-64
1.139174999999998761e+02 1.394570297086946893e-63
1.141312499999998806e+02 1.728218239386047976e-63
1.143449999999998852e+02 1.840108522091020528e-63
1.145587499999998897e+02 1.618390100442587014e-63
1.147724999999998943e+02 9.756269664113677721e-64
1.149862499999998988e+02 -1.233712336421024202e-64
1.151999999999998749e+02 -1.633564553402887158e-63
1.154137499999998795e+02 -3.407312876844073272e-63
1.156274999999998840e+02 -5.184482201415516467e-63
1.158412499999998886e+02 -6.601972767665376220e-63
1.160549999999998931e+02 -7.228280517088031318e-63
1.162687499999998977e+02 -6.625679234708509637e-63
1.164824999999999022e+02 -4.437874938785197072e-63
1.166962499999998784e+02 -4.948651782881539614e-64
1.169099999999998829e+02 5.080021726703043125e-63
1.171237499999998875e+02 1.178216553565746449e-62
1.173374999999998920e+02 1.868223917150971409e-62
1.175512499999998965e+02 2.445334774771103358e-62
1.177649999999999011e+02 2.749008922533013990e-62
1.179787499999998772e+02 2.613008169992329895e-62
1.181924999999998818e+02 1.897139999486505966e-62
1.184062499999998863e+02 5.257152644459357544e-63
1.186199999999998909e+02 -1.472622062018617567e-62
1.188337499999998954e+02 -3.931326524772504503e-62
1.190474999999999000e+02 -6.527857727092512684e-62
1.192612499999998761e+02 -8.790552921656931373e-62
1.194749999999998806e+02 -1.013839013873606361e-61
1.196887499999998852e+02 -9.957793084047788709e-62
1.199024999999998897e+02 -7.714607559065462451e-62
1.201162499999998943e+02 -3.091515104492684274e-62
1.203299999999998988e+02 3.867623576494413081e-62
1.205437499999998749e+02 1.263322282261065368e-61
1.207574999999998795e+02 2.211773475154676359e-61
1.209712499999998840e+02 3.068950788364837212e-61
1.211849999999998886e+02 3.630139752035609317e-61
1.213987499999998931e+02 3.674996428921323540e-61
1.216124999999998977e+02 3.006041692469128372e-61
1.218262499999998738e+02 1.496528226967076609e-61
1.220399999999998784e+02 -8.585697461680655432e-62
1.222537499999998829e+02 -3.897573529587468437e-61
1.224674999999998875e+02 -7.264319926883126814e-61
1.226812499999998920e+02 -1.040932528114590045e-60
1.228949999999998965e+02 -1.263000614859068613e-60
1.231087499999998727e+02 -1.315582431560362423e-60
1.233224999999998772e+02 -1.127729308739832433e-60
1.235362499999998818e+02 -6.508614042139895050e-61
1.237499999999998863e+02 1.236632530156845800e-61
1.239637499999998909e+02 1.148717673347204818e-60
1.241774999999998954e+02 2.311077547867466879e-60
1.243912499999998715e+02 3.430580542587282258e-60
1.246049999999998761e+02 4.272258248042138550e-60
1.248187499999998806e+02 4.573555841204572311e-60
1.250324999999998852e+02 4.086487337782842594e-60
1.252462499999998897e+02 2.631553204327911810e-60
1.254599999999998943e+02 1.568156699860279904e-61
1.256737499999998704e+02 -3.207771081473945212e-60
1.258874999999998749e+02 -7.113140609497706921e-60
1.261012499999998795e+02 -1.098421849424163063e-59
1.263149999999998840e+02 -1.405508548614890561e-59