2.024999999999579359e-01 1.566356954513121968e-106
4.162499999999482725e-01 2.201029297264175492e-106
6.299999999999528200e-01 2.507087592728854726e-106
8.437499999999573674e-01 2.041505856844937125e-106
1.057499999999947704e+00 2.690220952685844387e-107
1.271249999999952252e+00 -3.298702882578733105e-106
1.484999999999956799e+00 -8.854199784250071706e-106
1.698749999999947136e+00 -1.593849412016223472e-105
1.912499999999951683e+00 -2.302872751056208038e-105
2.126249999999956231e+00 -2.718848284884908698e-105
2.339999999999946567e+00 -2.398267886928552280e-105
2.553749999999951115e+00 -7.932441525428329479e-106
2.767499999999955662e+00 2.618825214283145217e-105
2.981249999999945999e+00 8.098592090985098222e-105
3.194999999999950546e+00 1.530148342378570756e-104
3.408749999999955094e+00 2.287186232057911736e-104
3.622499999999945430e+00 2.808307357922643135e-104
3.836249999999949978e+00 2.670918968064651952e-104
4.049999999999954525e+00 1.338482799727845993e-104
4.263749999999944862e+00 -1.726103386699240107e-104
4.477499999999949409e+00 -6.847009760803482411e-104
4.691249999999953957e+00 -1.381915289228740586e-103
4.904999999999944293e+00 -2.152469623227552907e-103
5.118749999999948841e+00 -2.757532455944658297e-103
5.332499999999953388e+00 -2.814313391125088566e-103
5.546249999999943725e+00 -1.820876757847876134e-103
5.759999999999948272e+00 7.512053104142520346e-104
5.973749999999952820e+00 5.274396024215064844e-103
6.187499999999943157e+00 1.168714063211081996e-102
6.401249999999947704e+00 1.914644407626600342e-102
6.614999999999952252e+00 2.568608114528124378e-102
6.828749999999942588e+00 2.801619247085753391e-102
7.042499999999947136e+00 2.165944584375009853e-102
7.256249999999951683e+00 1.653298966837281500e-103
7.469999999999942020e+00 -3.597649599255475865e-102
7.683749999999946567e+00 -9.188810087139571735e-102
7.897499999999951115e+00 -1.604120351628472772e-101
8.111249999999941451e+00 -2.264231265715040111e-101
8.324999999999945999e+00 -2.631706712682037514e-101
8.538749999999950546e+00 -2.326596027649288905e-101
8.752499999999940883e+00 -9.052000966486978718e-102
8.966249999999945430e+00 2.027937338381123668e-101
9.179999999999949978e+00 6.634864508085794929e-101
9.393749999999940314e+00 1.259500381121956039e-100
9.607499999999944862e+00 1.883179616287786464e-100
9.821249999999949409e+00 2.329577004974632442e-100
1.003499999999993975e+01 2.292803927757404196e-100
1.024874999999994429e+01 1.396086800068279771e-100
1.046249999999994884e+01 -7.286514389453402479e-101
1.067624999999993918e+01 -4.301301482538440185e-100
1.088999999999994373e+01 -9.197196601200093297e-100
1.110374999999994827e+01 -1.471963650707197837e-99
1.131749999999993861e+01 -1.939823748489315725e-99
1.153124999999994316e+01 -2.090495640611721275e-99
1.174499999999994770e+01 -1.620878643017993323e-99
1.195874999999993804e+01 -2.098779274422472232e-100
1.217249999999994259e+01 2.382543091464839489e-99
1.238624999999994714e+01 6.168497859991170279e-99
1.259999999999993747e+01 1.075237837600732492e-98
1.281374999999994202e+01 1.515578837251866424e-98
1.302749999999994657e+01 1.771169290411031236e-98
1.324124999999995111e+01 1.611681898996126441e-98
1.345499999999994145e+01 7.743428451655178620e-99
1.366874999999994600e+01 -9.702211770298670889e-99
1.388249999999995055e+01 -3.714140042790763388e-98
1.409624999999994088e+01 -7.277680002923194569e-98
1.430999999999994543e+01 -1.106691361318884730e-97
1.452374999999994998e+01 -1.396637687468602184e-97
1.473749999999994031e+01 -1.432890676056608833e-97
1.495124999999994486e+01 -1.013751432252293008e-97
1.516499999999994941e+01 5.892434134379827943e-99
1.537874999999993975e+01 1.910680830073419190e-97
1.559249999999994429e+01 4.499286714952482275e-97
1.580624999999994884e+01 7.506248519068595536e-97
1.601999999999993918e+01 1.024147824196974697e-96
1.623374999999994373e+01 1.160217840671310377e-96
1.644749999999994827e+01 1.013839346185927841e-96
1.666124999999993861e+01 4.279824895643845819e-97
1.687499999999994316e+01 -7.235782391215742008e-97
1.708874999999994770e+01 -2.472992802244510409e-96
1.730249999999993804e+01 -4.680833288866308524e-96
1.751624999999994259e+01 -6.959541159405540528e-96
1.772999999999994714e+01 -8.623301803958983303e-96
1.794374999999993747e+01 -8.699012913495368168e-96
1.815749999999994202e+01 -6.037364235124427129e-96
1.837124999999994657e+01 4.421555617324741930e-97
1.858499999999993690e+01 1.135811623113261073e-95
1.879874999999994145e+01 2.634919760545367067e-95
1.901249999999994600e+01 4.351041943200950755e-95
1.922624999999993634e+01 5.893084593637706375e-95
1.943999999999994088e+01 6.654790946336777349e-95
1.965374999999994543e+01 5.857914858668356779e-95
1.986749999999993577e+01 2.678642881914480551e-95
2.008124999999994031e+01 -3.526175851526698344e-95
2.029499999999994486e+01 -1.289650423272311047e-94
2.050874999999993520e+01 -2.468609116534066632e-94
2.072249999999993975e+01 -3.689723300818969676e-94
2.093624999999994429e+01 -4.605784578669839018e-94
2.114999999999993463e+01 -4.730352437792565476e-94
2.136374999999993918e+01 -3.494035229626991255e-94
2.157749999999994373e+01 -3.632016501057516251e-95
2.179124999999993406e+01 4.974208180225001953e-94
2.200499999999993861e+01 1.236845669564752956e-93
2.221874999999994316e+01 2.095071152103457721e-93
2.243249999999993349e+01 2.892518115890184600e-93
2.264624999999993804e+01 3.350492000977579873e-93
2.285999999999994259e+01 3.110261338580275071e-93
2.307374999999993292e+01 1.788225891166821256e-93
2.328749999999993747e+01 -9.262665528148086878e-94
2.350124999999994202e+01 -5.132401975132126777e-93
2.371499999999993236e+01 -1.055386765931737938e-92
2.392874999999993690e+01 -1.638148792294476538e-92
2.414249999999994145e+01 -2.117277895870495233e-92
2.435624999999993179e+01 -2.287318347141834817e-92
2.456999999999993634e+01 -1.902829454637657552e-92
2.478374999999994088e+01 -7.243596010131347373e-93
2.499749999999993122e+01 1.408864186653326126e-92
2.521124999999993577e+01 4.484053409489358995e-92
2.542499999999994031e+01 8.211400092282058593e-92
2.563874999999993065e+01 1.193632077706227494e-91
2.585249999999993520e+01 1.460179328982380068e-91
2.606624999999993975e+01 1.480155537521340315e-91
2.627999999999994429e+01 1.096358456973831866e-91
2.649374999999993463e+01 1.690069655859367145e-92
2.670749999999993918e+01 -1.374817228874698984e-91
2.692124999999994373e+01 -3.480899846836578633e-91
2.713499999999993406e+01 -5.907098318913838864e-91
2.734874999999993861e+01 -8.178439312572336228e-91
2.756249999999994316e+01 -9.579642613191477230e-91
2.777624999999993349e+01 -9.208751973537611887e-91
2.798999999999993804e+01 -6.112488104668293930e-91
2.820374999999994259e+01 4.864144156217573928e-92
2.841749999999993292e+01 1.087851564079442515e-90
2.863124999999993747e+01 2.450932604054367590e-90
2.884499999999994202e+01 3.964153903990048039e-90
2.905874999999993236e+01 5.313842146624920579e-90
2.927249999999993690e+01 6.049253979691887439e-90
2.948624999999994145e+01 5.622802391795074852e-90
2.969999999999993179e+01 3.477761991189323185e-90
2.991374999999993634e+01 -8.131482207863143235e-91
3.012749999999994088e+01 -7.366049091140316491e-90
3.034124999999993122e+01 -1.578382037180260390e-89
3.055499999999993577e+01 -2.497354789078445277e-89
3.076874999999994031e+01 -3.303943736743820545e-89
3.098249999999993065e+01 -3.731761979574367947e-89
3.119624999999993520e+01 -3.461890268940360301e-89
3.140999999999993975e+01 -2.172906815031993758e-89
3.162374999999993008e+01 3.820097195309731894e-90
3.183749999999993463e+01 4.275325544349602660e-89
3.205124999999993918e+01 9.294672177837787910e-89
3.226499999999992951e+01 1.484195853549535860e-88
3.247874999999993406e+01 1.987020139715894499e-88
3.269249999999993861e+01 2.289146192894226155e-88
3.290624999999992895e+01 2.208972544383480020e-88
3.311999999999993349e+01 1.556599304413747158e-88
3.333374999999993804e+01 1.727569034432035493e-89
3.354749999999992838e+01 -2.019116494428474290e-88
3.376124999999993292e+01 -4.952252334070461536e-88
3.397499999999993747e+01 -8.355924522723520222e-88
3.418874999999992781e+01 -1.170744613836722059e-87
3.440249999999993236e+01 -1.421301170302556811e-87
3.461624999999993690e+01 -1.483589670779211504e-87
3.482999999999992724e+01 -1.239057694084739066e-87
3.504374999999993179e+01 -5.718124543700745243e-88
3.525749999999993634e+01 6.049270674241554578e-88
3.547124999999992667e+01 2.313961515157947807e-87
3.568499999999993122e+01 4.473213905593218592e-87
3.589874999999993577e+01 6.853729311801134734e-87
3.611249999999992610e+01 9.044623203797558423e-87
3.632624999999993065e+01 1.043652164559436502e-86
3.653999999999993520e+01 1.023840650092892961e-86
3.675374999999992554e+01 7.545165983275550299e-87
3.696749999999993008e+01 1.473228969962634111e-87
3.718124999999993463e+01 -8.622376185690428650e-87
3.739499999999992497e+01 -2.284650022760324179e-86
3.760874999999992951e+01 -4.039352986022008945e-86
3.782249999999993406e+01 -5.915229302865409885e-86
3.803624999999993861e+01 -7.536805008096076841e-86
3.824999999999994316e+01 -8.348698885055169821e-86
3.846374999999991928e+01 -7.635001172776330529e-86
3.867749999999992383e+01 -4.592820406041395763e-86
3.889124999999992838e+01 1.521696567029894491e-86
3.910499999999993292e+01 1.116330998492781339e-85
3.931874999999993747e+01 2.418689559257313444e-85
3.953249999999994202e+01 3.948377676200392904e-85
3.974624999999991815e+01 5.462717922254732433e-85
3.995999999999992269e+01 6.562947812073406178e-85
4.017374999999992724e+01 6.695399104269450759e-85
4.038749999999993179e+01 5.195161704583076840e-85
4.060124999999993634e+01 1.389101465149440494e-85
4.081499999999994088e+01 -5.229936328820404812e-85
4.102874999999991701e+01 -1.475771233217516140e-84
4.124249999999992156e+01 -2.658174073793118563e-84
4.145624999999992610e+01 -3.908031306539916768e-84
4.166999999999993065e+01 -4.939735544165075867e-84
4.188374999999993520e+01 -5.340496889414560438e-84
4.209749999999993975e+01 -4.598713339989509414e-84
4.231124999999991587e+01 -2.177658396957455303e-84
4.252499999999992042e+01 2.356239471445239031e-84
4.273874999999992497e+01 9.150310698153456692e-84
4.295249999999992951e+01 1.784251386621685301e-83
4.316624999999993406e+01 2.733354004355983480e-83
4.337999999999993861e+01 3.561331997882249268e-83
4.359374999999991473e+01 3.972386555170908134e-83
4.380749999999991928e+01 3.595498618758506127e-83
4.402124999999992383e+01 2.036668032283647718e-83
4.423499999999992838e+01 -1.029824290959145158e-83
4.444874999999993292e+01 -5.731439133911787433e-83
4.466249999999993747e+01 -1.183973304572139314e-82
4.487624999999991360e+01 -1.861048548847118413e-82
4.508999999999991815e+01 -2.466340970696626845e-82
4.530374999999992269e+01 -2.795833725870050065e-82
4.551749999999992724e+01 -2.593364372550118663e-82
4.573124999999993179e+01 -1.586914074406825908e-82
4.594499999999993634e+01 4.486916302769039765e-83
4.615874999999991246e+01 3.603410200552318411e-82
4.637249999999991701e+01 7.726035345889647993e-82
4.658624999999992156e+01 1.231839459566533428e-81
4.679999999999992610e+01 1.645805291449231017e-81
4.701374999999993065e+01 1.878728918497385260e-81
4.722749999999993520e+01 1.761100221392801221e-81
4.744124999999993975e+01 1.114256778731682563e-81
4.765499999999991587e+01 -2.079583421463857649e-82
4.786874999999992042e+01 -2.261388152587536586e-81
4.808249999999992497e+01 -4.943368136876907795e-81
4.829624999999992951e+01 -7.926075429009261390e-81
4.850999999999993406e+01 -1.060995677144994086e-80
4.872374999999993861e+01 -1.212132158761227909e-80
4.893749999999991473e+01 -1.138058133707998649e-80
4.915124999999991928e+01 -7.264379910790626731e-81
4.936499999999992383e+01 1.126418040636040784e-81
4.957874999999992838e+01 1.410189569459348992e-80
4.979249999999993292e+01 3.096114960580288970e-80
5.000624999999993747e+01 4.959093378619658573e-80
5.021999999999991360e+01 6.620182881124402910e-80
5.043374999999991815e+01 7.534985424085755817e-80
5.064749999999992269e+01 7.040121153019970015e-80
5.086124999999992724e+01 4.457175890918219259e-80
5.107499999999993179e+01 -7.402620619129937760e-81
5.128874999999993634e+01 -8.704151697082773231e-80
5.150249999999991246e+01 -1.896060854356700064e-79
5.171624999999991701e+01 -3.017852033389581859e-79
5.192999999999992156e+01 -4.002944652318998477e-79
5.214374999999992610e+01 -4.522634388055455624e-79
5.235749999999993065e+01 -4.183122019174097598e-79
5.257124999999993520e+01 -2.590236719008876011e-79
5.278499999999991132e+01 5.496801510498639926e-80
5.299874999999991587e+01 5.298659432056698221e-79
5.321249999999992042e+01 1.134277818685881928e-78
5.342624999999992497e+01 1.786445109046049984e-78
5.363999999999992951e+01 2.347330730074012372e-78
5.385374999999993406e+01 2.624558510437096726e-78
5.406749999999991019e+01 2.392141999959109869e-78
5.428124999999991473e+01 1.429582070479601870e-78
5.449499999999991928e+01 -4.191057726016642739e-79
5.470874999999992383e+01 -3.170675038166705478e-78
5.492249999999992838e+01 -6.622796607610872465e-78
5.513624999999993292e+01 -1.028664223049529507e-77
5.534999999999990905e+01 -1.335577020894262167e-77
5.556374999999991360e+01 -1.473875495476264648e-77
5.577749999999991815e+01 -1.318148147934932624e-77
5.599124999999992269e+01 -7.496078480079622254e-78
5.620499999999992724e+01 3.104578535382172443e-78
5.641874999999993179e+01 1.859522411283549080e-77
5.663249999999990791e+01 3.771249023024128704e-77
5.684624999999991246e+01 5.761513764048272722e-77
5.705999999999991701e+01 7.376130563058887322e-77
5.727374999999992156e+01 8.014805020159399967e-77
5.748749999999992610e+01 7.004332664073068784e-77
5.770124999999993065e+01 3.728465403612762096e-77
5.791499999999990678e+01 -2.188514820767740085e-77
5.812874999999991132e+01 -1.066252122270724504e-76
5.834249999999991587e+01 -2.093101593073535457e-76
5.855624999999992042e+01 -3.138999910341577691e-76
5.876999999999992497e+01 -3.955614744440495049e-76
5.898374999999992951e+01 -4.222815625842552340e-76
5.919749999999990564e+01 -3.590965252958016283e-76
5.941124999999991019e+01 -1.752275510013177461e-76
5.962499999999991473e+01 1.461622912679753145e-76
5.983874999999991928e+01 5.966732677282549348e-76
6.005249999999992383e+01 1.131854311084034081e-75
6.026624999999992838e+01 1.663792270403990221e-75
6.047999999999990450e+01 2.060665730234911170e-75
6.069374999999990905e+01 2.156897423875112661e-75
6.090749999999991360e+01 1.776747335583384776e-75
6.112124999999991815e+01 7.722938998623977596e-76
6.133499999999992269e+01 -9.263283541832564837e-76
6.154874999999992724e+01 -3.254657553976575096e-75
6.176249999999993179e+01 -5.962416363752740460e-75
6.197624999999990791e+01 -8.581833228621010958e-75
6.218999999999991246e+01 -1.043339313533483277e-74
6.240374999999991701e+01 -1.068617684196617573e-74
6.261749999999992156e+01 -8.485037605130176149e-75
6.283124999999992610e+01 -3.146525726479814966e-75
6.304499999999993065e+01 5.590417796741527470e-75
6.325874999999990678e+01 1.729323003985662311e-74
6.347249999999991132e+01 3.059996578137485050e-74
6.368624999999991587e+01 4.309372051177869923e-74
6.389999999999992042e+01 5.137150518747338328e-74
6.411374999999992497e+01 5.138547303011743482e-74
6.432749999999992951e+01 3.910595639794513757e-74
6.454124999999990564e+01 1.150154021445978371e-74
6.475499999999991019e+01 -3.224782174156021303e-74
6.496874999999991473e+01 -8.948556487734823768e-74
6.518249999999991928e+01 -1.530415993092816513e-73
6.539624999999992383e+01 -2.107833879207419641e-73
6.560999999999992838e+01 -2.461446462351520613e-73
6.582374999999990450e+01 -2.399713011735752882e-73
6.603749999999990905e+01 -1.738685290804990457e-73
6.625124999999991360e+01 -3.495860003833360412e-74
6.646499999999991815e+01 1.784228006887073848e-73
6.667874999999992269e+01 4.510128306456924055e-73
6.689249999999992724e+01 7.462499713940352518e-73
6.710624999999990337e+01 1.004922438207127293e-72
6.731999999999990791e+01 1.148578784981261677e-72
6.753374999999991246e+01 1.089120034993477377e-72
6.774749999999991701e+01 7.451790462320939713e-73
6.796124999999992156e+01 6.455528552761479319e-74
6.817499999999992610e+01 -9.498111335654211417e-73
6.838874999999990223e+01 -2.214853458538041270e-72
6.860249999999990678e+01 -3.549769870567547188e-72
6.881624999999991132e+01 -4.673382144948354923e-72
6.902999999999991587e+01 -5.223997852173427227e-72
6.924374999999992042e+01 -4.807443735641533094e-72
6.945749999999992497e+01 -3.074866205474358034e-72
6.967124999999990109e+01 1.744188320089657796e-73
6.988499999999990564e+01 4.877823836302687754e-72
7.009874999999991019e+01 1.060366426263152930e-71
7.031249999999991473e+01 1.648375148188314457e-71
7.052624999999991928e+01 2.121772932276483849e-71
7.073999999999992383e+01 2.318069521513202883e-71
7.095374999999989996e+01 2.065562285089677907e-71
7.116749999999990450e+01 1.219249435380883285e-71
7.138124999999990905e+01 -2.932829200246255476e-72
7.159499999999991360e+01 -2.422247722236065880e-71
7.180874999999991815e+01 -4.952240795113544772e-71
7.202249999999992269e+01 -7.477936084029914263e-71
7.223624999999989882e+01 -9.413108498084484185e-71
7.244999999999990337e+01 -1.004575586544940972e-70
7.266374999999990791e+01 -8.647020309078391388e-71
7.287749999999991246e+01 -4.632492293410534589e-71
7.309124999999991701e+01 2.238339488174181303e-71
7.330499999999992156e+01 1.165389256443325181e-70
7.351874999999989768e+01 2.257795168910554622e-70
7.373249999999990223e+01 3.316846425669286847e-70
7.394624999999990678e+01 4.084664095427673152e-70
7.415999999999991132e+01 4.256638678300207170e-70
7.437374999999991587e+01 3.530963953781116750e-70
7.458749999999992042e+01 1.679216155450531916e-70
7.480124999999992497e+01 -1.369098486866995550e-70
7.501499999999990109e+01 -5.441404084770690126e-70
7.522874999999990564e+01 -1.005564257914297814e-69
7.544249999999991019e+01 -1.439596801668198613e-69
7.565624999999991473e+01 -1.735435665455390285e-69
7.586999999999991928e+01 -1.765707927370158810e-69
7.608374999999992383e+01 -1.408367455454068970e-69
7.629749999999989996e+01 -5.768148589055698009e-70
7.651124999999990450e+01 7.451104559416392606e-70
7.672499999999990905e+01 2.469165136029629514e-69
7.693874999999991360e+01 4.377948518762606381e-69
7.715249999999991815e+01 6.118934133045844172e-69
7.736624999999992269e+01 7.226651322506103480e-69
7.757999999999989882e+01 7.179950149811843759e-69
7.779374999999990337e+01 5.496241558616024052e-69
7.800749999999990791e+01 1.857003516139201822e-69
7.822124999999991246e+01 -3.750663869398583096e-69
7.843499999999991701e+01 -1.090170337414912836e-68
7.864874999999992156e+01 -1.864379539929735457e-68
7.886249999999989768e+01 -2.548934971302802164e-68
7.907624999999990223e+01 -2.952472089755917303e-68
7.928999999999990678e+01 -2.866113237568484893e-68
7.950374999999991132e+01 -2.103005419678420084e-68
7.971749999999991587e+01 -5.494380821460250428e-69
7.993124999999992042e+01 1.779121625976300097e-68
8.014499999999989654e+01 4.687608491731359072e-68
8.035874999999990109e+01 7.770187075731934915e-68
8.057249999999990564e+01 1.041327862343512663e-67
8.078624999999991019e+01 1.184624307940227961e-67
8.099999999999991473e+01 1.124804691672228250e-67
8.121374999999991928e+01 7.909154801494628471e-68
8.142749999999989541e+01 1.435238826330964110e-68
8.164124999999989996e+01 -8.035515934369749332e-68
8.185499999999990450e+01 -1.964428878886327199e-67
8.206874999999990905e+01 -3.170640963903191343e-67
8.228249999999991360e+01 -4.174621054384287381e-67
8.249624999999991815e+01 -4.672120897551567862e-67
8.270999999999989427e+01 -4.346286309808012239e-67
8.292374999999989882e+01 -2.932417665746140544e-67
8.313749999999990337e+01 -2.974729995023469888e-68
8.335124999999990791e+01 3.477281814435343399e-67
8.356499999999991246e+01 8.027429197948732328e-67
8.377874999999991701e+01 1.267107501602160923e-66
8.399249999999989313e+01 1.643044784553211739e-66
8.420624999999989768e+01 1.812707927187753901e-66
8.441999999999990223e+01 1.655909527794013388e-66
8.463374999999990678e+01 1.075452027465700998e-66
8.484749999999991132e+01 2.754053418678358124e-68
8.506124999999991587e+01 -1.447352752460821005e-66
8.527499999999989200e+01 -3.199734894176804894e-66
8.548874999999989654e+01 -4.960268598849250344e-66
8.570249999999990109e+01 -6.350740163702069297e-66
8.591624999999990564e+01 -6.923023194296830737e-66
8.612999999999991019e+01 -6.228583022714967296e-66
8.634374999999991473e+01 -3.915422706733848814e-66
8.655749999999989086e+01 1.578002980840983855e-67
8.677124999999989541e+01 5.808490154380588423e-66
8.698499999999989996e+01 1.244249463216054370e-65
8.719874999999990450e+01 1.902108201361107626e-65
8.741249999999990905e+01 2.411085972974919493e-65
8.762624999999991360e+01 2.603804568467147167e-65
8.783999999999991815e+01 2.315427129311009277e-65
8.805374999999989427e+01 1.419984291606391117e-65
8.826749999999989882e+01 -1.275986248876247451e-66
8.848124999999990337e+01 -2.250595151867627677e-65
8.869499999999990791e+01 -4.719885652241411022e-65
8.890874999999991246e+01 -7.144176423537284138e-65
8.912249999999991701e+01 -8.991075079044452419e-65
8.933624999999989313e+01 -9.646293710646978237e-65
8.954999999999989768e+01 -8.512872082290838547e-65
8.976374999999990223e+01 -5.144496426837944134e-65
8.997749999999990678e+01 6.025117272812488252e-66
9.019124999999991132e+01 8.423752857369668140e-65
9.040499999999991587e+01 1.746117084685377239e-64
9.061874999999989200e+01 2.627471365400439361e-64
9.083249999999989654e+01 3.292624988177903359e-64
9.104624999999990109e+01 3.520009674180010200e-64
9.125999999999990564e+01 3.096472901990944361e-64
9.147374999999991019e+01 1.865213793400379231e-64
9.168749999999991473e+01 -2.202236284182226369e-65
9.190124999999989086e+01 -3.044998477635578417e-64
9.211499999999989541e+01 -6.296886545654445827e-64
9.232874999999989996e+01 -9.458124842982116822e-64
9.254249999999990450e+01 -1.183720472176134793e-63
9.275624999999990905e+01 -1.264867758572415477e-63
9.296999999999991360e+01 -1.114194838521768702e-63
9.318374999999988972e+01 -6.770153666314372107e-64
9.339749999999989427e+01 6.213911578480512239e-65
9.361124999999989882e+01 1.061923581507919538e-63
9.382499999999990337e+01 2.211943370053710145e-63
9.403874999999990791e+01 3.330363027117119521e-63
9.425249999999991246e+01 4.175423407317021266e-63
9.446624999999988859e+01 4.473512363901140005e-63
9.467999999999989313e+01 3.963958993492304408e-63
9.489374999999989768e+01 2.457324802208892932e-63
9.510749999999990223e+01 -9.997687583686950493e-65
9.532124999999990678e+01 -3.565767240834915196e-63
9.553499999999991132e+01 -7.560890737665221034e-63
9.574874999999988745e+01 -1.146183160474266062e-62
9.596249999999989200e+01 -1.444069959478324649e-62
9.617624999999989654e+01 -1.556120055986738513e-62
9.638999999999990109e+01 -1.393078051721897140e-62
9.660374999999990564e+01 -8.897707936309250406e-63
9.681749999999991019e+01 -2.687345076347288205e-64
9.703124999999988631e+01 1.148975492363383802e-62
9.724499999999989086e+01 2.511378650223988734e-62
9.745874999999989541e+01 3.851713078673034876e-62
9.767249999999989996e+01 4.892441765100943416e-62
9.788624999999990450e+01 5.318993990536230698e-62
9.809999999999990905e+01 4.830208304251425520e-62
9.831374999999988518e+01 3.203574076768359265e-62
9.852749999999988972e+01 3.672226897484055098e-63
9.874124999999989427e+01 -3.533504370750068135e-62
9.895499999999989882e+01 -8.090156772090949792e-62
9.916874999999990337e+01 -1.262223800127446617e-61
9.938249999999990791e+01 -1.621964220300664427e-61
9.959624999999988404e+01 -1.784546474179788053e-61
9.980999999999988859e+01 -1.649913830120346538e-61
1.000237499999998931e+02 -1.142776164943955958e-61
1.002374999999998977e+02 -2.359774364427551918e-62
1.004512499999999022e+02 1.027800852537237428e-61
1.006649999999999068e+02 2.520873278353452492e-61
1.008787499999998829e+02 4.027121907603105687e-61
1.010924999999998875e+02 5.254907419325538932e-61
1.013062499999998920e+02 5.869210118703041487e-61
1.015199999999998965e+02 5.543040403313534316e-61
1.017337499999999011e+02 4.024361116753191755e-61
1.019474999999999056e+02 1.210463911924585709e-61
1.021612499999999102e+02 -2.782374298181524623e-61
1.023749999999998863e+02 -7.569186568244029876e-61
1.025887499999998909e+02 -1.248284711466470956e-60
1.028024999999998954e+02 -1.661131379050595529e-60
1.030162499999999000e+02 -1.889482000360894364e-60
1.032299999999999045e+02 -1.828351614847321244e-60
1.034437499999999091e+02 -1.394441440899249952e-60
1.036574999999998852e+02 -5.493289385700376324e-61
1.038712499999998897e+02 6.785482075616008704e-61
1.040849999999998943e+02 2.177765131791050841e-60
1.042987499999998988e+02 3.748636775770748538e-60
1.045124999999999034e+02 5.113280666218064743e-60
1.047262499999999079e+02 5.943950524800818713e-60
1.049399999999998840e+02 5.909974007513059424e-60
1.051537499999998886e+02 4.740145696714159199e-60
1.053674999999998931e+02 2.293463308543885734e-60
1.055812499999998977e+02 -1.372732961978289312e-60
1.057949999999999022e+02 -5.951071101179604900e-60
1.060087499999999068e+02 -1.086391640383252990e-59
1.062224999999998829e+02 -1.528824306363536612e-59
1.064362499999998875e+02 -1.823485817899151104e-59
1.066499999999998920e+02 -1.868372144740332309e-59
1.068637499999998965e+02 -1.576697283812337273e-59
1.070774999999999011e+02 -8.979662911937533432e-60
1.072912499999999056e+02 1.613160349150052862e-60
1.075049999999998818e+02 1.521317964813940163e-59
1.077187499999998863e+02 3.021340479651504506e-59
1.079324999999998909e+02 4.425141875789997193e-59
1.081462499999998954e+02 5.442011932423413616e-59
1.083599999999999000e+02 5.764388830998533443e-59
1.085737499999999045e+02 5.119951367345474249e-59
1.087874999999998806e+02 3.332800286424253007e-59
1.090012499999998852e+02 3.850537020182422894e-60
1.092149999999998897e+02 -3.532453636689477203e-59
1.094287499999998943e+02 -7.992977353151935598e-59
1.096424999999998988e+02 -1.234212311454537331e-58
1.098562499999999034e+02 -1.575043570134759880e-58
1.100699999999998795e+02 -1.731359754109424478e-58
1.102837499999998840e+02 -1.619570633944546642e-58
1.104974999999998886e+02 -1.180188864612023188e-58
1.107112499999998931e+02 -3.957189504457384703e-59
1.109249999999998977e+02 6.939061145073821266e-59
1.111387499999999022e+02 1.981850705983277434e-58
1.113524999999998784e+02 3.294287040678826031e-58
1.115662499999998829e+02 4.402377903717440412e-58
1.117799999999998875e+02 5.047592889402270186e-58
1.119937499999998920e+02 4.979568840000995212e-58
1.122074999999998965e+02 4.003249608698484945e-58
1.124212499999999011e+02 2.029469531306078832e-58
1.126349999999998772e+02 -8.790852832265209097e-59
1.128487499999998818e+02 -4.476002423632631881e-58
1.130624999999998863e+02 -8.322914010817004792e-58
1.132762499999998909e+02 -1.181289510385246907e-57
1.134899999999998954e+02 -1.423005974312282327e-57
1.137037499999999000e+02 -1.484479305678056735e-57
1.139174999999998761e+02 -1.303765634342345807e-57
1.141312499999998806e+02 -8.438119577071544405e-58
1.143449999999998852e+02 -1.057988276823585340e-58
1.145587499999998897e+02 8.605053499192657742e-58
1.147724999999998943e+02 1.951972023896334564e-57
1.149862499999998988e+02 3.015240259611938451e-57
1.151999999999998749e+02 3.859317901593274189e-57
1.154137499999998795e+02 4.278023692397115926e-57
1.156274999999998840e+02 4.081059460707040158e-57
1.158412499999998886e+02 3.130723688026740690e-57
1.160549999999998931e+02 1.379549900571391206e-57
1.162687499999998977e+02 -1.097222896544246057e-57
1.164824999999999022e+02 -4.081148805326725054e-57
1.166962499999998784e+02 -7.208601874747505177e-57
1.169099999999998829e+02 -9.992504683318172546e-57
1.171237499999998875e+02 -1.187034899127106021e-56
1.173374999999998920e+02 -1.227744588395276781e-56
1.175512499999998965e+02 -1.073994996968518337e-56
1.177649999999999011e+02 -6.977594864924470621e-57
1.179787499999998772e+02 -1.001938171335964044e-57
1.181924999999998818e+02 6.806987448238135476e-57
1.184062499999998863e+02 1.566362841049424587e-56
1.186199999999998909e+02 2.439577009042312156e-56
1.188337499999998954e+02 3.153090336468580674e-56
1.190474999999999000e+02 3.545400759726825347e-56
1.192612499999998761e+02 3.463042456127396672e-56
1.194749999999998806e+02 2.787565203060477072e-56
1.196887499999998852e+02 1.464182471948681184e-56
1.199024999999998897e+02 -4.719863509266126390e-57
1.201162499999998943e+02 -2.876854367267730447e-56
1.203299999999998988e+02 -5.490416013113360791e-56
1.205437499999998749e+02 -7.946282756006450836e-56
1.207574999999998795e+02 -9.800717417176967810e-56
1.209712499999998840e+02 -1.058199052285619329e-55
1.211849999999998886e+02 -9.857972778111770554e-56
1.213987499999998931e+02 -7.316482041735366537e-56
1.216124999999998977e+02 -2.849390749403815797e-56
1.218262499999998738e+02 3.371638314385506300e-56
1.220399999999998784e+02 1.084210542924696092e-55
1.222537499999998829e+02 1.870925836359291461e-55
1.224674999999998875e+02 2.580775307390942617e-55
1.226812499999998920e+02 3.075580557037532554e-55
1.228949999999998965e+02 3.211452873090587521e-55
1.231087499999998727e+02 2.860394331898764021e-55
1.233224999999998772e+02 1.935812610992381239e-55
1.235362499999998818e+02 4.190276199560224229e-56
1.237499999999998863e+02 -1.617219818869987355e-55
1.239637499999998909e+02 -3.993009287679183342e-55
1.241774999999998954e+02 -6.418216057627163455e-55
1.243912499999998715e+02 -8.506692261284009111e-55
1.246049999999998761e+02 -9.810707418148402347e-55
1.248187499999998806e+02 -9.876311570620737460e-55
1.250324999999998852e+02 -8.316999890597492130e-55
1.252462499999998897e+02 -4.899136839366000778e-55
1.254599999999998943e+02 3.715023158408144028e-56
1.256737499999998704e+02 7.176348793035150254e-55
1.258874999999998749e+02 1.484047349538108903e-54
1.261012499999998795e+02 2.233578453271871339e-54
1.263149999999998840e+02 2.834538554765617355e-54
1.265287499999998886e+02 3.139759055598905400e-54
1.267424999999998931e+02 3.006876170297380643e-54