2.024999999999579359e-01 -3.804422132431584588e-131
4.162499999999482725e-01 3.957100582812320665e-130
6.299999999999528200e-01 1.162054725022142874e-129
8.437499999999573674e-01 2.282003271800030369e-129
1.057499999999947704e+00 3.621566520138176124e-129
1.271249999999952252e+00 4.768366042397143541e-129
1.484999999999956799e+00 4.899924655737282195e-129
1.698749999999947136e+00 2.702945666623859301e-129
1.912499999999951683e+00 -3.550042893814438073e-129
2.126249999999956231e+00 -1.561175933485653395e-128
2.339999999999946567e+00 -3.437861915199737385e-128
2.553749999999951115e+00 -5.837649051350483514e-128
2.767499999999955662e+00 -8.163885140707629805e-128
2.981249999999945999e+00 -9.135642319784164807e-128
3.194999999999950546e+00 -6.625942585570640408e-128
3.408749999999955094e+00 2.253276184825123545e-128
3.622499999999945430e+00 2.056782709395988476e-127
3.836249999999949978e+00 5.018976951343634501e-127
4.049999999999954525e+00 8.941750210273531659e-127
4.263749999999944862e+00 1.296349191657530689e-126
4.477499999999949409e+00 1.516141485579803515e-126
4.691249999999953957e+00 1.229574668031926788e-126
4.904999999999944293e+00 -6.802532793745926937e-129
5.118749999999948841e+00 -2.668508358496301699e-126
5.332499999999953388e+00 -7.058951657519543502e-126
5.546249999999943725e+00 -1.295931129439037957e-125
5.759999999999948272e+00 -1.914474370864621657e-125
5.973749999999952820e+00 -2.286106764800653110e-125
6.187499999999943157e+00 -1.948174455158568474e-125
6.401249999999947704e+00 -2.719141042483352344e-126
6.614999999999952252e+00 3.409997040604472291e-125
6.828749999999942588e+00 9.515568495812565506e-125
7.042499999999947136e+00 1.773235331790724844e-124
7.256249999999951683e+00 2.637033555783246845e-124
7.469999999999942020e+00 3.168811776056523747e-124
7.683749999999946567e+00 2.749529334143012546e-124
7.897499999999951115e+00 5.523300768863011616e-125
8.111249999999941451e+00 -4.279385525412901812e-124
8.324999999999945999e+00 -1.224949885893160539e-123
8.538749999999950546e+00 -2.289142876502892035e-123
8.752499999999940883e+00 -3.396592157058413998e-123
8.966249999999945430e+00 -4.066763930989953089e-123
9.179999999999949978e+00 -3.523090134698779089e-123
9.393749999999940314e+00 -7.537781948146189413e-124
9.607499999999944862e+00 5.252604115551876001e-123
9.821249999999949409e+00 1.502913399185539060e-122
1.003499999999993975e+01 2.788871928441155371e-122
1.024874999999994429e+01 4.100037032070627183e-122
1.046249999999994884e+01 4.853427844273077531e-122
1.067624999999993918e+01 4.134640554222902454e-122
1.088999999999994373e+01 7.891550736010296110e-123
1.110374999999994827e+01 -6.283418105461479150e-122
1.131749999999993861e+01 -1.756727458066216174e-121
1.153124999999994316e+01 -3.209618175210819362e-121
1.174499999999994770e+01 -4.646471250886571099e-121
1.195874999999993804e+01 -5.398925432505521081e-121
1.217249999999994259e+01 -4.455061851931097054e-121
1.238624999999994714e+01 -5.852593310625480175e-122
1.259999999999993747e+01 7.310935212168634641e-121
1.281374999999994202e+01 1.958223128170807256e-120
1.302749999999994657e+01 3.494606857112898725e-120
1.324124999999995111e+01 4.950575694678461728e-120
1.345499999999994145e+01 5.601073828604488307e-120
1.366874999999994600e+01 4.392401151485387773e-120
1.388249999999995055e+01 1.027332419092262698e-121
1.409624999999994088e+01 -8.271310069684809129e-120
1.430999999999994543e+01 -2.086394293813211953e-119
1.452374999999994998e+01 -3.607036867945405517e-119
1.473749999999994031e+01 -4.964280543319599555e-119
1.495124999999994486e+01 -5.412360381996973756e-119
1.516499999999994941e+01 -3.917802612500050220e-119
1.537874999999993975e+01 6.495438137017608503e-120
1.559249999999994429e+01 9.108122922788617003e-119
1.580624999999994884e+01 2.132154573098636963e-118
1.601999999999993918e+01 3.539161971721180852e-118
1.623374999999994373e+01 4.689516052184787917e-118
1.644749999999994827e+01 4.854026981947322027e-118
1.666124999999993861e+01 3.077067165273228980e-118
1.687499999999994316e+01 -1.609697976554662856e-118
1.708874999999994770e+01 -9.776957757186948667e-118
1.730249999999993804e+01 -2.099527990692179801e-117
1.751624999999994259e+01 -3.313342719066973880e-117
1.772999999999994714e+01 -4.177643712090622828e-117
1.794374999999993747e+01 -4.012390360552269664e-117
1.815749999999994202e+01 -1.983712581038216445e-117
1.837124999999994657e+01 2.669814589293484384e-117
1.858499999999993690e+01 1.024348590838843177e-116
1.879874999999994145e+01 2.002995692320269549e-116
1.901249999999994600e+01 2.974841166807533384e-116
1.922624999999993634e+01 3.515786104371034277e-116
1.943999999999994088e+01 3.018368751087456643e-116
1.965374999999994543e+01 7.950208945455611557e-117
1.986749999999993577e+01 -3.693999927736387780e-116
2.008124999999994031e+01 -1.047848833142015316e-115
2.029499999999994486e+01 -1.862248953790906198e-115
2.050874999999993520e+01 -2.579113908778407023e-115
2.072249999999993975e+01 -2.804746431879607692e-115
2.093624999999994429e+01 -2.016633976235628880e-115
2.114999999999993463e+01 3.222626041978599232e-116
2.136374999999993918e+01 4.544042025087388466e-115
2.157749999999994373e+01 1.045509842245509780e-114
2.179124999999993406e+01 1.696494171716632286e-114
2.200499999999993861e+01 2.178097143352604661e-114
2.221874999999994316e+01 2.135726943286688317e-114
2.243249999999993349e+01 1.133798621987527404e-114
2.264624999999993804e+01 -1.226958781636209440e-114
2.285999999999994259e+01 -5.106769424654691800e-114
2.307374999999993292e+01 -1.015197669537366334e-113
2.328749999999993747e+01 -1.520349868964449374e-113
2.350124999999994202e+01 -1.809829260953910701e-113
2.371499999999993236e+01 -1.572755663040795708e-113
2.392874999999993690e+01 -4.546062453809406445e-114
2.414249999999994145e+01 1.829820749534439447e-113
2.435624999999993179e+01 5.316243173251224359e-113
2.456999999999993634e+01 9.562166064194434640e-113
2.478374999999994088e+01 1.342423990043105378e-112
2.499749999999993122e+01 1.493983299589960137e-112
2.521124999999993577e+01 1.145007611582586781e-112
2.542499999999994031e+01 1.166683184459873616e-114
2.563874999999993065e+01 -2.105048053294331032e-112
2.585249999999993520e+01 -5.165021649751366711e-112
2.606624999999993975e+01 -8.703469006903656637e-112
2.627999999999994429e+01 -1.166405094604856925e-111
2.649374999999993463e+01 -1.233424438316779865e-111
2.670749999999993918e+01 -8.494052533556151083e-112
2.692124999999994373e+01 2.105700119372766158e-112
2.713499999999993406e+01 2.085661110364142862e-111
2.734874999999993861e+01 4.701796064830943776e-111
2.756249999999994316e+01 7.624620426686581532e-111
2.777624999999993349e+01 9.935501021893875080e-111
2.798999999999993804e+01 1.019859652801872823e-110
2.820374999999994259e+01 6.605930095920288387e-111
2.841749999999993292e+01 -2.612704082017851341e-111
2.863124999999993747e+01 -1.846234266648876697e-110
2.884499999999994202e+01 -4.016715435154417504e-110
2.905874999999993236e+01 -6.403091777790300323e-110
2.927249999999993690e+01 -8.251649294879447171e-110
2.948624999999994145e+01 -8.407346835586242636e-110
2.969999999999993179e+01 -5.437233456336323455e-110
2.991374999999993634e+01 2.041818013210179676e-110
3.012749999999994088e+01 1.479548492725264132e-109
3.034124999999993122e+01 3.219219788473472639e-109
3.055499999999993577e+01 5.134049549381530448e-109
3.076874999999994031e+01 6.640380204924689291e-109
3.098249999999993065e+01 6.848648364190205337e-109
3.119624999999993520e+01 4.657345239697209268e-109
3.140999999999993975e+01 -1.001804350431865424e-109
3.162374999999993008e+01 -1.074268542876585208e-108
3.183749999999993463e+01 -2.414898364843697244e-108
3.205124999999993918e+01 -3.913780362943011130e-108
3.226499999999992951e+01 -5.144941861653898422e-108
3.247874999999993406e+01 -5.454332409249474404e-108
3.269249999999993861e+01 -4.024185589207793032e-108
3.290624999999992895e+01 -4.456312960859643016e-110
3.311999999999993349e+01 6.990076888408394994e-108
3.333374999999993804e+01 1.687303711757334601e-107
3.354749999999992838e+01 2.822963424585871538e-107
3.376124999999993292e+01 3.813993006373970094e-107
3.397499999999993747e+01 4.203005375907123934e-107
3.418874999999992781e+01 3.406480118174227359e-107
3.440249999999993236e+01 8.265734982714986261e-108
3.461624999999993690e+01 -3.951349912238073718e-107
3.482999999999992724e+01 -1.088263401579299276e-106
3.504374999999993179e+01 -1.914801654853749320e-106
3.525749999999993634e+01 -2.687951501952289540e-106
3.547124999999992667e+01 -3.105015022372489690e-106
3.568499999999993122e+01 -2.767982782577158677e-106
3.589874999999993577e+01 -1.250824194736473285e-106
3.611249999999992610e+01 1.776762462568163477e-106
3.632624999999993065e+01 6.371614672590869207e-106
3.653999999999993520e+01 1.210755638320445275e-105
3.675374999999992554e+01 1.788182308376119361e-105
3.696749999999993008e+01 2.181226076107941912e-105
3.718124999999993463e+01 2.132054503613839323e-105
3.739499999999992497e+01 1.349953825923417632e-105
3.760874999999992951e+01 -4.164243669451524496e-106
3.782249999999993406e+01 -3.271000453397829907e-105
3.803624999999993861e+01 -7.037406337891380836e-105
3.824999999999994316e+01 -1.112749230337243658e-104
3.846374999999991928e+01 -1.445396398689729375e-104
3.867749999999992383e+01 -1.544363513751213485e-104
3.889124999999992838e+01 -1.221250058510393346e-104
3.910499999999993292e+01 -2.952421353200371116e-105
3.931874999999993747e+01 1.345485353934219439e-104
3.953249999999994202e+01 3.664087063093749814e-104
3.974624999999991815e+01 6.389955708235875522e-104
3.995999999999992269e+01 8.950798261595002289e-104
4.017374999999992724e+01 1.045331414270193429e-103
4.038749999999993179e+01 9.748749000026907378e-104
4.060124999999993634e+01 5.616571859477247872e-104
4.081499999999994088e+01 -2.915161349321932135e-104
4.102874999999991701e+01 -1.612314569472639214e-103
4.124249999999992156e+01 -3.306946817255147821e-103
4.145624999999992610e+01 -5.111654935828249662e-103
4.166999999999993065e+01 -6.563767884109260549e-103
4.188374999999993520e+01 -7.012485444400798791e-103
4.209749999999993975e+01 -5.690295174871948590e-103
4.231124999999991587e+01 -1.861259773360182511e-103
4.252499999999992042e+01 4.949432547469063162e-103
4.273874999999992497e+01 1.466013327706431274e-102
4.295249999999992951e+01 2.631418753773101280e-102
4.316624999999993406e+01 3.781195249557516264e-102
4.337999999999993861e+01 4.579661232673440179e-102
4.359374999999991473e+01 4.581615402697383390e-102
4.380749999999991928e+01 3.288203511474670765e-102
4.402124999999992383e+01 2.511025606291434661e-103
4.423499999999992838e+01 -4.773910642326455869e-102
4.444874999999993292e+01 -1.163517293937523181e-101
4.466249999999993747e+01 -1.958281422924169515e-101
4.487624999999991360e+01 -2.710280160081117810e-101
4.508999999999991815e+01 -3.185302919962020256e-101
4.530374999999992269e+01 -3.078063019309789490e-101
4.551749999999992724e+01 -2.050139579687267824e-101
4.573124999999993179e+01 1.995549979479782096e-102
4.594499999999993634e+01 3.829960159253964611e-101
4.615874999999991246e+01 8.724697890851932804e-101
4.637249999999991701e+01 1.434784028976658646e-100
4.658624999999992156e+01 1.962005782418701630e-100
4.679999999999992610e+01 2.286177758251563887e-100
4.701374999999993065e+01 2.186281328196842494e-100
4.722749999999993520e+01 1.414325001545890275e-100
4.744124999999993975e+01 -2.538593077809633209e-101
4.765499999999991587e+01 -2.940613927648233928e-100
4.786874999999992042e+01 -6.564697988314892328e-100
4.808249999999992497e+01 -1.072836526057014183e-99
4.829624999999992951e+01 -1.461780156302697875e-99
4.850999999999993406e+01 -1.695463721188615967e-99
4.872374999999993861e+01 -1.604764273250240211e-99
4.893749999999991473e+01 -9.998565375717252573e-100
4.915124999999991928e+01 2.891814817932153374e-100
4.936499999999992383e+01 2.349865627070930854e-99
4.957874999999992838e+01 5.106257409282282008e-99
4.979249999999993292e+01 8.230608244448810556e-99
5.000624999999993747e+01 1.106892399081981251e-98
5.021999999999991360e+01 1.261216264337647352e-98
5.043374999999991815e+01 1.155285535739556277e-98
5.064749999999992269e+01 6.468428051224503279e-99
5.086124999999992724e+01 -3.837630210016809943e-99
5.107499999999993179e+01 -1.983221791122184316e-98
5.128874999999993634e+01 -4.062829127226036457e-98
5.150249999999991246e+01 -6.334602098899186477e-98
5.171624999999991701e+01 -8.264144987901760661e-98
5.192999999999992156e+01 -9.065556515204771753e-98
5.214374999999992610e+01 -7.767766440209208682e-98
5.235749999999993065e+01 -3.379544215210324009e-98
5.257124999999993520e+01 4.831427463511878645e-98
5.278499999999991132e+01 1.695431590193108084e-97
5.299874999999991587e+01 3.199207477063452358e-97
5.321249999999992042e+01 4.745357528387346452e-97
5.342624999999992497e+01 5.912499949497912870e-97
5.363999999999992951e+01 6.120330418321566532e-97
5.385374999999993406e+01 4.698307962002513206e-97
5.406749999999991019e+01 1.024470039724251763e-97
5.428124999999991473e+01 -5.262336218300533529e-97
5.449499999999991928e+01 -1.399321725907008670e-96
5.470874999999992383e+01 -2.418650739393047110e-96
5.492249999999992838e+01 -3.382609146777909364e-96
5.513624999999993292e+01 -3.980343911541707484e-96
5.534999999999990905e+01 -3.814113661846366735e-96
5.556374999999991360e+01 -2.460543325696817913e-96
5.577749999999991815e+01 4.232702355702444280e-97
5.599124999999992269e+01 4.952294763159585895e-96
5.620499999999992724e+01 1.084233631834598616e-95
5.641874999999993179e+01 1.725007117081116591e-95
5.663249999999990791e+01 2.267701283027211425e-95
5.684624999999991246e+01 2.500299757639797208e-95
5.705999999999991701e+01 2.171641454263259126e-95
5.727374999999992156e+01 1.039173655570053627e-95
5.748749999999992610e+01 -1.057593058899191502e-95
5.770124999999993065e+01 -4.103686555105420715e-95
5.791499999999990678e+01 -7.810071717969765235e-95
5.812874999999991132e+01 -1.153455829193783297e-94
5.834249999999991587e+01 -1.425563768801417995e-94
5.855624999999992042e+01 -1.463694153995379241e-94
5.876999999999992497e+01 -1.121615588241615908e-94
5.898374999999992951e+01 -2.736753386600398318e-95
5.919749999999990564e+01 1.138834732248030581e-94
5.941124999999991019e+01 3.053465614808968832e-94
5.962499999999991473e+01 5.235045789350076863e-94
5.983874999999991928e+01 7.242367759106890309e-94
6.005249999999992383e+01 8.432383442520159510e-94
6.026624999999992838e+01 8.021566802409717845e-94
6.047999999999990450e+01 5.219380774654738505e-94
6.069374999999990905e+01 -5.625443534208865740e-95
6.090749999999991360e+01 -9.440346648080629130e-94
6.112124999999991815e+01 -2.076619079154102455e-93
6.133499999999992269e+01 -3.288103708720258619e-93
6.154874999999992724e+01 -4.300187690620815782e-93
6.176249999999993179e+01 -4.734594618708712586e-93
6.197624999999990791e+01 -4.158656059911697934e-93
6.218999999999991246e+01 -2.169829128223771811e-93
6.240374999999991701e+01 1.482228576777179881e-93
6.261749999999992156e+01 6.747943393683595209e-93
6.283124999999992610e+01 1.312934229698349437e-92
6.304499999999993065e+01 1.956895112074316709e-92
6.325874999999990678e+01 2.442457386083352572e-92
6.347249999999991132e+01 2.558172707463247416e-92
6.368624999999991587e+01 2.074724391112724107e-92
6.389999999999992042e+01 7.943967542550171208e-93
6.411374999999992497e+01 -1.381434501497487637e-92
6.432749999999992951e+01 -4.374530258223391042e-92
6.454124999999990564e+01 -7.856082517242087590e-92
6.475499999999991019e+01 -1.119783023954566342e-91
6.496874999999991473e+01 -1.347326342093388651e-91
6.518249999999991928e+01 -1.353472314053931474e-91
6.539624999999992383e+01 -1.018662397388419670e-91
6.560999999999992838e+01 -2.461578316605768447e-92
6.582374999999990450e+01 1.001582531663440385e-91
6.603749999999990905e+01 2.662244884316743280e-91
6.625124999999991360e+01 4.536595890679896115e-91
6.646499999999991815e+01 6.266090251308248579e-91
6.667874999999992269e+01 7.338387129586601892e-91
6.689249999999992724e+01 7.134054669045189596e-91
6.710624999999990337e+01 5.024561914688215057e-91
6.731999999999990791e+01 5.243458184958785741e-92
6.753374999999991246e+01 -6.512094421446098555e-91
6.774749999999991701e+01 -1.567299282246805120e-90
6.796124999999992156e+01 -2.579510071616740246e-90
6.817499999999992610e+01 -3.485285377312258912e-90
6.838874999999990223e+01 -4.000302445930108622e-90
6.860249999999990678e+01 -3.785720151123529816e-90
6.881624999999991132e+01 -2.503693009127414223e-90
6.902999999999991587e+01 9.742631160281122925e-92
6.924374999999992042e+01 4.073404293062550837e-90
6.945749999999992497e+01 9.164137259186051338e-90
6.967124999999990109e+01 1.468787824955272806e-89
6.988499999999990564e+01 1.948410344943200772e-89
7.009874999999991019e+01 2.194614035286619244e-89
7.031249999999991473e+01 2.018467835594865488e-89
7.052624999999991928e+01 1.235280696166508639e-89
7.073999999999992383e+01 -2.860954811835591252e-90
7.095374999999989996e+01 -2.560459783323308487e-89
7.116749999999990450e+01 -5.418561088505436325e-89
7.138124999999990905e+01 -8.449190171461952208e-89
7.159499999999991360e+01 -1.097145395380246244e-88
7.180874999999991815e+01 -1.206123152624860437e-88
7.202249999999992269e+01 -1.065519128128570867e-88
7.223624999999989882e+01 -5.748645320462191968e-89
7.244999999999990337e+01 3.311890913409830839e-89
7.266374999999990791e+01 1.646493189877573760e-88
7.287749999999991246e+01 3.255449987760822271e-88
7.309124999999991701e+01 4.902564636942974958e-88
7.330499999999992156e+01 6.181704640090776642e-88
7.351874999999989768e+01 6.558910455281443007e-88
7.373249999999990223e+01 5.441478244900786447e-88
7.394624999999990678e+01 2.300882579128833608e-88
7.415999999999991132e+01 -3.152972995651944085e-88
7.437374999999991587e+01 -1.076376753858694707e-87
7.458749999999992042e+01 -1.972345901901373944e-87
7.480124999999992497e+01 -2.842570983337607902e-87
7.501499999999990109e+01 -3.444964464948393576e-87
7.522874999999990564e+01 -3.475055835604948790e-87
7.544249999999991019e+01 -2.612140702050006368e-87
7.565624999999991473e+01 -5.951846186270005177e-88
7.586999999999991928e+01 2.675328165755472678e-87
7.608374999999992383e+01 7.022468237022351531e-87
7.629749999999989996e+01 1.188833034297393377e-86
7.651124999999990450e+01 1.627351804135030132e-86
7.672499999999990905e+01 1.876095355918488298e-86
7.693874999999991360e+01 1.766384754303458279e-86
7.715249999999991815e+01 1.132621427737342375e-86
7.736624999999992269e+01 -1.421030068352501961e-87
7.757999999999989882e+01 -2.068535885929644750e-86
7.779374999999990337e+01 -4.490817533395438744e-86
7.800749999999990791e+01 -7.037571161482946084e-86
7.822124999999991246e+01 -9.103824032483857107e-86
7.843499999999991701e+01 -9.885257076183482193e-86
7.864874999999992156e+01 -8.483912156542859426e-86
7.886249999999989768e+01 -4.095720456963832559e-86
7.907624999999990223e+01 3.726038084509643617e-86
7.928999999999990678e+01 1.476063891376098761e-85
7.950374999999991132e+01 2.782059491794234625e-85
7.971749999999991587e+01 4.054836593332500182e-85
7.993124999999992042e+01 4.941431019711587526e-85
8.014499999999989654e+01 5.002367590921255892e-85
8.035874999999990109e+01 3.781572302712749631e-85
8.057249999999990564e+01 9.178193151608788915e-86
8.078624999999991019e+01 -3.709735185908558014e-85
8.099999999999991473e+01 -9.822332588298280960e-85
8.121374999999991928e+01 -1.660348033336942533e-84
8.142749999999989541e+01 -2.262942319149521598e-84
8.164124999999989996e+01 -2.592260821652722820e-84
8.185499999999990450e+01 -2.417867133982620733e-84
8.206874999999990905e+01 -1.519828961248512907e-84
8.228249999999991360e+01 2.482182335034507289e-85
8.249624999999991815e+01 2.882267154136791338e-84
8.270999999999989427e+01 6.150323659684558063e-84
8.292374999999989882e+01 9.533835575086471458e-84
8.313749999999990337e+01 1.221333566429036991e-83
8.335124999999990791e+01 1.312495721722912914e-83
8.356499999999991246e+01 1.110978661649415031e-83
8.377874999999991701e+01 5.165194075616810470e-84
8.399249999999989313e+01 -5.214492683087056118e-84
8.420624999999989768e+01 -1.965025357789989929e-83
8.441999999999990223e+01 -3.651970287749463384e-83
8.463374999999990678e+01 -5.273500936367727856e-83
8.484749999999991132e+01 -6.378456851900938370e-83
8.506124999999991587e+01 -6.416239849132119016e-83
8.527499999999989200e+01 -4.827252071352551198e-83
8.548874999999989654e+01 -1.181787939986303807e-83
8.570249999999990109e+01 4.643604019563617747e-83
8.591624999999990564e+01 1.227841660608949218e-82
8.612999999999991019e+01 2.070134301098199292e-82
8.634374999999991473e+01 2.816988336275672099e-82
8.655749999999989086e+01 3.229789830314426034e-82
8.677124999999989541e+01 3.033583826069645745e-82
8.698499999999989996e+01 1.968432872094915511e-82
8.719874999999990450e+01 -1.372012759276169772e-83
8.741249999999990905e+01 -3.278591154193377325e-82
8.762624999999991360e+01 -7.187341221854557045e-82
8.783999999999991815e+01 -1.126670873915678019e-81
8.805374999999989427e+01 -1.457722627523607855e-81
8.826749999999989882e+01 -1.590121644431458567e-81
8.848124999999990337e+01 -1.390912719811862974e-81
8.869499999999990791e+01 -7.436429073755496830e-82
8.890874999999991246e+01 4.143514606768226766e-82
8.912249999999991701e+01 2.049630381557124581e-81
8.933624999999989313e+01 3.993370883652382511e-81
8.954999999999989768e+01 5.916375962237485082e-81
8.976374999999990223e+01 7.331574983439096894e-81
8.997749999999990678e+01 7.636844359565728840e-81
9.019124999999991132e+01 6.207247844057906876e-81
9.040499999999991587e+01 2.538014532300422801e-81
9.061874999999989200e+01 -3.572292094810100845e-81
9.083249999999989654e+01 -1.182395049023050872e-80
9.104624999999990109e+01 -2.124506937870798519e-80
9.125999999999990564e+01 -3.010226849004325602e-80
9.147374999999991019e+01 -3.595434290605340267e-80
9.168749999999991473e+01 -3.590470427539917902e-80
9.190124999999989086e+01 -2.708665916414603260e-80
9.211499999999989541e+01 -7.375197939959867714e-81
9.232874999999989996e+01 2.373909828030221216e-80
9.254249999999990450e+01 6.424844321980015429e-80
9.275624999999990905e+01 1.089035852773181904e-79
9.296999999999991360e+01 1.489264563737737092e-79
9.318374999999988972e+01 1.724368560706877253e-79
9.339749999999989427e+01 1.658293657662977571e-79
9.361124999999989882e+01 1.162196695246368996e-79
9.382499999999990337e+01 1.487885170703066344e-80
9.403874999999990791e+01 -1.387008932022040167e-79
9.425249999999991246e+01 -3.327842450514223919e-79
9.446624999999988859e+01 -5.403955523211281811e-79
9.467999999999989313e+01 -7.185421724362906411e-79
9.489374999999989768e+01 -8.108837959290820923e-79
9.510749999999990223e+01 -7.548252823732706126e-79
9.532124999999990678e+01 -4.934155718578765405e-79
9.553499999999991132e+01 8.525842329492042932e-81
9.574874999999988745e+01 7.459016943309291469e-79
9.596249999999989200e+01 1.655712795233197936e-78
9.617624999999989654e+01 2.604880322380524857e-78
9.638999999999990109e+01 3.388900017938522919e-78
9.660374999999990564e+01 3.746646633004698992e-78
9.681749999999991019e+01 3.395300363801554298e-78
9.703124999999988631e+01 2.086473661268913652e-78
9.724499999999989086e+01 -3.198495306175782281e-79
9.745874999999989541e+01 -3.772659412267475126e-78
9.767249999999989996e+01 -7.953831116696052281e-78
9.788624999999990450e+01 -1.222931040207708721e-77
9.809999999999990905e+01 -1.565135557675115288e-77
9.831374999999988518e+01 -1.703455308107904496e-77
9.852749999999988972e+01 -1.512150956612593603e-77
9.874124999999989427e+01 -8.840552592432975414e-78
9.895499999999989882e+01 2.362445406570048091e-78
9.916874999999990337e+01 1.816117398692207547e-77
9.938249999999990791e+01 3.702450125036804675e-77
9.959624999999988404e+01 5.602255115937689071e-77
9.980999999999988859e+01 7.086641182410958804e-77
1.000237499999998931e+02 7.627717006842108377e-77
1.002374999999998977e+02 6.674721198547060021e-77
1.004512499999999022e+02 3.769499399956919575e-77
1.006649999999999068e+02 -1.307491710217528899e-77
1.008787499999998829e+02 -8.380359544418386764e-77
1.010924999999998875e+02 -1.674103901299401026e-76
1.013062499999998920e+02 -2.507265821617769856e-76
1.015199999999998965e+02 -3.147703077362667363e-76
1.017337499999999011e+02 -3.364606733458919585e-76
1.019474999999999056e+02 -2.920177641271127928e-76
1.021612499999999102e+02 -1.620218201236924696e-76
1.023749999999998863e+02 6.228213361980225792e-77
1.025887499999998909e+02 3.723103341660161595e-76
1.028024999999998954e+02 7.364392253248321255e-76
1.030162499999999000e+02 1.096985613207445176e-75
1.032299999999999045e+02 1.371716531454271137e-75
1.034437499999999091e+02 1.461522295751805430e-75
1.036574999999998852e+02 1.265211036999252050e-75
1.038712499999998897e+02 7.012011047465453486e-76
1.040849999999998943e+02 -2.657534663753499477e-76
1.042987499999998988e+02 -1.596598866988976484e-75
1.045124999999999034e+02 -3.154482652996833691e-75
1.047262499999999079e+02 -4.692877271950923977e-75
1.049399999999998840e+02 -5.862960792876710190e-75
1.051537499999998886e+02 -6.246869328040708657e-75
1.053674999999998931e+02 -5.420507819964201532e-75
1.055812499999998977e+02 -3.044613159008265969e-75
1.057949999999999022e+02 1.024057758031526257e-75
1.060087499999999068e+02 6.617449348864396917e-75
1.062224999999998829e+02 1.316056739951790685e-74
1.064362499999998875e+02 1.962489455578875148e-74
1.066499999999998920e+02 2.456185408741246971e-74
1.068637499999998965e+02 2.624270694952408620e-74
1.070774999999999011e+02 2.291890628189773745e-74
1.072912499999999056e+02 1.319631144549057558e-74
1.075049999999998818e+02 -3.511113229120331195e-75
1.077187499999998863e+02 -2.651427646280420108e-74
1.079324999999998909e+02 -5.346524027099223948e-74
1.081462499999998954e+02 -8.017532385902626479e-74
1.083599999999999000e+02 -1.007585324416045369e-73
1.085737499999999045e+02 -1.082038111025687348e-73
1.087874999999998806e+02 -9.542875144333468680e-74
1.090012499999998852e+02 -5.678410467096464234e-74
1.092149999999998897e+02 1.013227576555716105e-74
1.094287499999998943e+02 1.026186522667006175e-73
1.096424999999998988e+02 2.113546481058927331e-73
1.098562499999999034e+02 3.196961237523111859e-73
1.100699999999998795e+02 4.042620622632107058e-73
1.102837499999998840e+02 4.372119399941056011e-73
1.104974999999998886e+02 3.904078858820229036e-73
1.107112499999998931e+02 2.413273759387506264e-73
1.109249999999998977e+02 -1.983945815457197074e-74
1.111387499999999022e+02 -3.829564362569740616e-73
1.113524999999998784e+02 -8.120698945175218090e-73
1.115662499999998829e+02 -1.242703345058425732e-72
1.117799999999998875e+02 -1.584161966933783005e-72
1.119937499999998920e+02 -1.728349561959345967e-72
1.122074999999998965e+02 -1.565801711675553250e-72
1.124212499999999011e+02 -1.008373481712225672e-72
1.126349999999998772e+02 -1.637655390950035856e-74
1.128487499999998818e+02 1.373856426564275770e-72
1.130624999999998863e+02 3.027671552042891358e-72
1.132762499999998909e+02 4.701854464250924015e-72
1.134899999999998954e+02 6.053336212714389801e-72
1.137037499999999000e+02 6.672382208815031919e-72
1.139174999999998761e+02 6.142756738605466732e-72
1.141312499999998806e+02 4.126603972122155810e-72
1.143449999999998852e+02 4.656847832101109516e-73
1.145587499999998897e+02 -4.716062764364013098e-72
1.147724999999998943e+02 -1.092971300791226977e-71
1.149862499999998988e+02 -1.728325554180069066e-71
1.151999999999998749e+02 -2.251326954009363212e-71
1.154137499999998795e+02 -2.510627091403200301e-71
1.156274999999998840e+02 -2.351833255538894522e-71
1.158412499999998886e+02 -1.648420722629212940e-71
1.160549999999998931e+02 -3.385130575434031617e-72
1.162687499999998977e+02 1.537935449281197664e-71
1.164824999999999022e+02 3.809147809593122871e-71
1.166962499999998784e+02 6.157642576974245227e-71
1.169099999999998829e+02 8.131334784376198386e-71
1.171237499999998875e+02 9.186573112746520155e-71
1.173374999999998920e+02 8.765989975144311984e-71
1.175512499999998965e+02 6.407868972668241245e-71
1.177649999999999011e+02 1.875991801330404797e-71
1.179787499999998772e+02 -4.709340357305982840e-71
1.181924999999998818e+02 -1.276567348327649812e-70
1.184062499999998863e+02 -2.119908927037174911e-70
1.186199999999998909e+02 -2.844168621993644252e-70
1.188337499999998954e+02 -3.259938912141773524e-70
1.190474999999999000e+02 -3.171934497502303739e-70
1.192612499999998761e+02 -2.416489133625714589e-70
1.194749999999998806e+02 -9.059744747797053305e-71
1.196887499999998852e+02 1.326468596780325639e-70
1.199024999999998897e+02 4.090886421208029520e-70
1.201162499999998943e+02 7.023536462399915569e-70
1.203299999999998988e+02 9.599089464307789232e-70
1.205437499999998749e+02 1.117968688459358784e-69
1.207574999999998795e+02 1.110368464460437017e-69
1.209712499999998840e+02 8.809822242715599890e-70
1.211849999999998886e+02 3.983905170971439423e-70
1.213987499999998931e+02 -3.293878883428759063e-70
1.216124999999998977e+02 -1.243044356626994237e-69
1.218262499999998738e+02 -2.226363798121119020e-69
1.220399999999998784e+02 -3.110066659011017171e-69
1.222537499999998829e+02 -3.687503382205103682e-69
1.224674999999998875e+02 -3.743004667273577794e-69
1.226812499999998920e+02 -3.091411831732429614e-69
1.228949999999998965e+02 -1.624581685015046139e-69
1.231087499999998727e+02 6.421124950299538966e-70
1.233224999999998772e+02 3.532528252052528198e-69
1.235362499999998818e+02 6.692128597445337602e-69
1.237499999999998863e+02 9.599772283895551420e-69
1.239637499999998909e+02 1.161595965209037805e-68
1.241774999999998954e+02 1.206953962685278745e-68
1.243912499999998715e+02 1.037786110245548888e-68
1.246049999999998761e+02 6.187140045881186955e-69
1.248187499999998806e+02 -4.882961961716610189e-70
1.250324999999998852e+02 -9.155560809868768807e-69
1.252462499999998897e+02 -1.879196161613564560e-68
1.254599999999998943e+02 -2.788084123574547032e-68
1.256737499999998704e+02 -3.455352893397949568e-68
1.258874999999998749e+02 -3.684112317930044843e-68