2.024999999999579359e-01 -5.420186130006166950e-154
4.162499999999482725e-01 -4.894516202900169639e-154
6.299999999999528200e-01 -9.239052499682972815e-155
8.437499999999573674e-01 8.869824384908252462e-154
1.057499999999947704e+00 2.677755364684727247e-153
1.271249999999952252e+00 5.361607443626395198e-153
1.484999999999956799e+00 8.633859934424596442e-153
1.698749999999947136e+00 1.146542339955290889e-152
1.912499999999951683e+00 1.172291011481121217e-152
2.126249999999956231e+00 5.901199197460953001e-153
2.339999999999946567e+00 -1.074000394712395966e-152
2.553749999999951115e+00 -4.319013982323869638e-152
2.767499999999955662e+00 -9.429883790184292868e-152
2.981249999999945999e+00 -1.604855823268143386e-151
3.194999999999950546e+00 -2.254441921008904209e-151
3.408749999999955094e+00 -2.526881209193983357e-151
3.622499999999945430e+00 -1.794745298620011687e-151
3.836249999999949978e+00 8.289871028564007596e-152
4.049999999999954525e+00 6.345682502994036099e-151
4.263749999999944862e+00 1.548255858206051467e-150
4.477499999999949409e+00 2.796335397384889800e-150
4.691249999999953957e+00 4.139988070037228287e-150
4.904999999999944293e+00 4.991901410210468662e-150
5.118749999999948841e+00 4.292037390313133833e-150
5.332499999999953388e+00 4.777509676791103143e-151
5.546249999999943725e+00 -8.320205864508766513e-150
5.759999999999948272e+00 -2.368144577439262754e-149
5.973749999999952820e+00 -4.572109895524894956e-149
6.187499999999943157e+00 -7.124172795609989309e-149
6.401249999999947704e+00 -9.135123257172996376e-149
6.614999999999952252e+00 -8.912932968624636376e-149
6.828749999999942588e+00 -3.860029459179105611e-149
7.042499999999947136e+00 9.289398456855236432e-149
7.256249999999951683e+00 3.360657817724598543e-148
7.469999999999942020e+00 7.017362701735555908e-148
7.683749999999946567e+00 1.151617622132059678e-147
7.897499999999951115e+00 1.559270269991667022e-147
8.111249999999941451e+00 1.669354668530361005e-147
8.324999999999945999e+00 1.073688403626531590e-147
8.538749999999950546e+00 -7.641670365016443133e-148
8.752499999999940883e+00 -4.391387393388430472e-147
8.966249999999945430e+00 -1.010585692851405969e-146
9.179999999999949978e+00 -1.751761950802179617e-146
9.393749999999940314e+00 -2.494290702850489496e-146
9.607499999999944862e+00 -2.873754681190065242e-146
9.821249999999949409e+00 -2.282898860465126662e-146
1.003499999999993975e+01 1.095280235639826918e-147
1.024874999999994429e+01 5.208595331585487556e-146
1.046249999999994884e+01 1.363568772245360160e-145
1.067624999999993918e+01 2.510292108647431444e-145
1.088999999999994373e+01 3.752071375785531844e-145
1.110374999999994827e+01 4.597070172222660933e-145
1.131749999999993861e+01 4.188952303213399217e-145
1.153124999999994316e+01 1.309314442978583095e-145
1.174499999999994770e+01 -5.443221436103054747e-145
1.195874999999993804e+01 -1.718669509036961605e-144
1.217249999999994259e+01 -3.390692329807110279e-144
1.238624999999994714e+01 -5.320820003550644869e-144
1.259999999999993747e+01 -6.881673907690733784e-144
1.281374999999994202e+01 -6.927513436563944243e-144
1.302749999999994657e+01 -3.765415226731871553e-144
1.324124999999995111e+01 4.647291318857108007e-144
1.345499999999994145e+01 2.012625693796865261e-143
1.366874999999994600e+01 4.316351935910763611e-143
1.388249999999995055e+01 7.126254132753177459e-143
1.409624999999994088e+01 9.686953919675784327e-143
1.430999999999994543e+01 1.054300196927204210e-142
1.452374999999994998e+01 7.460581223013984379e-143
1.473749999999994031e+01 -2.374804918714971623e-143
1.495124999999994486e+01 -2.168255775265248274e-142
1.516499999999994941e+01 -5.173754494105317505e-142
1.537874999999993975e+01 -9.025472848437701158e-142
1.559249999999994429e+01 -1.286694931766511694e-141
1.580624999999994884e+01 -1.494206087634117415e-141
1.601999999999993918e+01 -1.244750878568435977e-141
1.623374999999994373e+01 -1.705942487969545972e-142
1.644749999999994827e+01 2.108535858287583196e-141
1.666124999999993861e+01 5.827185922827794593e-141
1.687499999999994316e+01 1.081763838917334780e-140
1.708874999999994770e+01 1.616910783882049940e-140
1.730249999999993804e+01 1.986882290112745125e-140
1.751624999999994259e+01 1.856680911161355488e-140
1.772999999999994714e+01 7.695400311634287843e-141
1.794374999999993747e+01 -1.774881986683325488e-140
1.815749999999994202e+01 -6.143555026191010097e-140
1.837124999999994657e+01 -1.227278477441024309e-139
1.858499999999993690e+01 -1.926040160889939023e-139
1.879874999999994145e+01 -2.491578992942451769e-139
1.901249999999994600e+01 -2.542298619488390174e-139
1.922624999999993634e+01 -1.537725904830249528e-139
1.943999999999994088e+01 1.144886792088617712e-139
1.965374999999994543e+01 6.021955104450733856e-139
1.986749999999993577e+01 1.317402242169169760e-138
2.008124999999994031e+01 2.177901341684041998e-138
2.029499999999994486e+01 2.957506091199445264e-138
2.050874999999993520e+01 3.241549174013001716e-138
2.072249999999993975e+01 2.419760819090436753e-138
2.093624999999994429e+01 -2.439538695261076625e-139
2.114999999999993463e+01 -5.419922566442468368e-138
2.136374999999993918e+01 -1.336300568221216779e-137
2.157749999999994373e+01 -2.340092916707225901e-137
2.179124999999993406e+01 -3.332202196582500334e-137
2.200499999999993861e+01 -3.882534510800025515e-137
2.221874999999994316e+01 -3.332572583207764860e-137
2.243249999999993349e+01 -8.535295892041491583e-138
2.264624999999993804e+01 4.368321126937910655e-137
2.285999999999994259e+01 1.277613872585393256e-136
2.307374999999993292e+01 2.390458794327909027e-136
2.328749999999993747e+01 3.571211178839341655e-136
2.350124999999994202e+01 4.393977759211318454e-136
2.371499999999993236e+01 4.178870241358490862e-136
2.392874999999993690e+01 2.034871773384131897e-136
2.414249999999994145e+01 -2.969726144900747117e-136
2.435624999999993179e+01 -1.146091545183461626e-135
2.456999999999993634e+01 -2.321601515322124426e-135
2.478374999999994088e+01 -3.646561260863390072e-135
2.499749999999993122e+01 -4.718392713033606726e-135
2.521124999999993577e+01 -4.864796278676087851e-135
2.542499999999994031e+01 -3.169299769044968662e-135
2.563874999999993065e+01 1.380143352614591820e-135
2.585249999999993520e+01 9.567538959838463221e-135
2.606624999999993975e+01 2.142220517258443303e-134
2.627999999999994429e+01 3.551813795490830815e-134
2.649374999999993463e+01 4.822528148254518471e-134
2.670749999999993918e+01 5.317174716247010819e-134
2.692124999999994373e+01 4.132415979135947284e-134
2.713499999999993406e+01 2.209987657214708177e-135
2.734874999999993861e+01 -7.318419728941035621e-134
2.756249999999994316e+01 -1.875000612700957654e-133
2.777624999999993349e+01 -3.302471079433892721e-133
2.798999999999993804e+01 -4.702478133639917875e-133
2.820374999999994259e+01 -5.495921359158667383e-133
2.841749999999993292e+01 -4.828412604244341812e-133
2.863124999999993747e+01 -1.664328516408628434e-133
2.884499999999994202e+01 4.964491215749311068e-133
2.905874999999993236e+01 1.551779368983743855e-132
2.927249999999993690e+01 2.931912290477399094e-132
2.948624999999994145e+01 4.382496071750668379e-132
2.969999999999993179e+01 5.398801636119869173e-132
2.991374999999993634e+01 5.204611794034942616e-132
3.012749999999994088e+01 2.818838384215486702e-132
3.034124999999993122e+01 -2.740263631697132729e-132
3.055499999999993577e+01 -1.207416125713472926e-131
3.076874999999994031e+01 -2.484248423906874818e-131
3.098249999999993065e+01 -3.908380652921389966e-131
3.119624999999993520e+01 -5.058119207515283742e-131
3.140999999999993975e+01 -5.255604542145843567e-131
3.162374999999993008e+01 -3.608799624794055876e-131
3.183749999999993463e+01 8.284217024695002830e-132
3.205124999999993918e+01 8.739572444530529173e-131
3.226499999999992951e+01 2.006140416867681083e-130
3.247874999999993406e+01 3.337657628742265250e-130
3.269249999999993861e+01 4.531170040135860067e-130
3.290624999999992895e+01 5.017487923275419731e-130
3.311999999999993349e+01 4.017102861166428412e-130
3.333374999999993804e+01 6.595140962301119413e-131
3.354749999999992838e+01 -5.763535958061506880e-130
3.376124999999993292e+01 -1.539563724829140650e-129
3.397499999999993747e+01 -2.729263016692540496e-129
3.418874999999992781e+01 -3.887646889852347584e-129
3.440249999999993236e+01 -4.555255605014307324e-129
3.461624999999993690e+01 -4.076853292578353894e-129
3.482999999999992724e+01 -1.685414182031933421e-129
3.504374999999993179e+01 3.303381635979604785e-129
3.525749999999993634e+01 1.116869848693891699e-128
3.547124999999992667e+01 2.135028988722943309e-128
3.568499999999993122e+01 3.197329607572291587e-128
3.589874999999993577e+01 3.947537122210278511e-128
3.611249999999992610e+01 3.855680996241428464e-128
3.632624999999993065e+01 2.273195448778022784e-128
3.653999999999993520e+01 -1.423913971270500133e-128
3.675374999999992554e+01 -7.586157428798803025e-128
3.696749999999993008e+01 -1.594298264333211403e-127
3.718124999999993463e+01 -2.520548050968083716e-127
3.739499999999992497e+01 -3.272534040723030158e-127
3.760874999999992951e+01 -3.437919735924328304e-127
3.782249999999993406e+01 -2.489855367617889893e-127
3.803624999999993861e+01 1.123793744480713511e-128
3.824999999999994316e+01 4.738482497122263516e-127
3.846374999999991928e+01 1.131898165945604129e-126
3.867749999999992383e+01 1.902575481024724362e-126
3.889124999999992838e+01 2.597652701842694155e-126
3.910499999999993292e+01 2.908841877651249036e-126
3.931874999999993747e+01 2.424872555468855619e-126
3.953249999999994202e+01 6.986899606330797733e-127
3.974624999999991815e+01 -2.620642587924231852e-126
3.995999999999992269e+01 -7.588711015221915997e-126
4.017374999999992724e+01 -1.371858993115729274e-125
4.038749999999993179e+01 -1.973703703466395265e-125
4.060124999999993634e+01 -2.343315587223953251e-125
4.081499999999994088e+01 -2.172345473529822267e-125
4.102874999999991701e+01 -1.107439059457209137e-125
4.124249999999992156e+01 1.159635395790948770e-125
4.145624999999992610e+01 4.749616731675199844e-125
4.166999999999993065e+01 9.411870793858299538e-125
4.188374999999993520e+01 1.433233748182414352e-124
4.209749999999993975e+01 1.799437621496918076e-124
4.231124999999991587e+01 1.818051840060679156e-124
4.252499999999992042e+01 1.221925754663312741e-124
4.273874999999992497e+01 -2.427283878362093894e-125
4.295249999999992951e+01 -2.718671719389661824e-124
4.316624999999993406e+01 -6.106216824882793250e-124
4.337999999999993861e+01 -9.918632203080459631e-124
4.359374999999991473e+01 -1.316455193737426386e-123
4.380749999999991928e+01 -1.431754852262104508e-123
4.402124999999992383e+01 -1.144677538299148735e-123
4.423499999999992838e+01 -2.580873270250732290e-124
4.444874999999993292e+01 1.365037337735372592e-123
4.466249999999993747e+01 3.711499127529826538e-123
4.487624999999991360e+01 6.513834910189964786e-123
4.508999999999991815e+01 9.157651234587551051e-123
4.530374999999992269e+01 1.063987096028389638e-122
4.551749999999992724e+01 9.628286395367066189e-123
4.573124999999993179e+01 4.674294892243843284e-123
4.594499999999993634e+01 -5.384326236723055937e-123
4.615874999999991246e+01 -2.083177306523155020e-122
4.637249999999991701e+01 -4.035915929996781993e-122
4.658624999999992156e+01 -6.037874244643068190e-122
4.679999999999992610e+01 -7.461689060058945052e-122
4.701374999999993065e+01 -7.431566749965784886e-122
4.722749999999993520e+01 -4.939870734930346353e-122
4.744124999999993975e+01 9.118084552972141008e-123
4.765499999999991587e+01 1.054108112011666416e-121
4.786874999999992042e+01 2.341581980856793352e-121
4.808249999999992497e+01 3.757591918410142299e-121
4.829624999999992951e+01 4.929699614792697225e-121
4.850999999999993406e+01 5.310330949065422704e-121
4.872374999999993861e+01 4.236264793880558037e-121
4.893749999999991473e+01 1.066175209220183141e-121
4.915124999999991928e+01 -4.596186118517234455e-121
4.936499999999992383e+01 -1.260858935347788770e-120
4.957874999999992838e+01 -2.197547178491059472e-120
4.979249999999993292e+01 -3.059996743680427348e-120
5.000624999999993747e+01 -3.522807267781754701e-120
5.021999999999991360e+01 -3.173052296396938225e-120
5.043374999999991815e+01 -1.585400472929676620e-120
5.064749999999992269e+01 1.549296796418433798e-120
5.086124999999992724e+01 6.248553890764894653e-120
5.107499999999993179e+01 1.204214264946655987e-119
5.128874999999993634e+01 1.780540923096200959e-119
5.150249999999991246e+01 2.169519337219963166e-119
5.171624999999991701e+01 2.127573700247061347e-119
5.192999999999992156e+01 1.391681519207082524e-119
5.214374999999992610e+01 -2.489127947491466659e-120
5.235749999999993065e+01 -2.851786071110178751e-119
5.257124999999993520e+01 -6.205207183190342510e-119
5.278499999999991132e+01 -9.724761042131161998e-119
5.299874999999991587e+01 -1.240453670664183142e-118
5.321249999999992042e+01 -1.287370658705377237e-118
5.342624999999992497e+01 -9.607395770795173552e-119
5.363999999999992951e+01 -1.321400431933397273e-119
5.385374999999993406e+01 1.246132226596790524e-118
5.406749999999991019e+01 3.074903268518225793e-118
5.428124999999991473e+01 5.048195577891836212e-118
5.449499999999991928e+01 6.623362627930819449e-118
5.470874999999992383e+01 7.050450224261839649e-118
5.492249999999992838e+01 5.488984844383898316e-118
5.513624999999993292e+01 1.229298036193857373e-118
5.534999999999990905e+01 -5.988629846085659785e-118
5.556374999999991360e+01 -1.560340907911171596e-117
5.577749999999991815e+01 -2.589935497096432420e-117
5.599124999999992269e+01 -3.385137581768883769e-117
5.620499999999992724e+01 -3.531743135899877488e-117
5.641874999999993179e+01 -2.574164296841791584e-117
5.663249999999990791e+01 -1.463850421404333499e-118
5.684624999999991246e+01 3.841418815230955868e-117
5.705999999999991701e+01 8.988262289046980592e-117
5.727374999999992156e+01 1.421593029910920565e-116
5.748749999999992610e+01 1.769546699736201169e-116
5.770124999999993065e+01 1.698995844489067206e-116
5.791499999999990678e+01 9.512587595258257957e-117
5.812874999999991132e+01 -6.642953078098057418e-117
5.834249999999991587e+01 -3.153351281047670204e-116
5.855624999999992042e+01 -6.203545732204035658e-116
5.876999999999992497e+01 -9.070929983566673762e-116
5.898374999999992951e+01 -1.054022084807766132e-115
5.919749999999990564e+01 -9.025707766818773567e-116
5.941124999999991019e+01 -2.878101777346239647e-116
5.962499999999991473e+01 9.062693388892981620e-116
5.983874999999991928e+01 2.668603358522000280e-115
6.005249999999992383e+01 4.770931274072951514e-115
6.026624999999992838e+01 6.688631723963634847e-115
6.047999999999990450e+01 7.568191987281148877e-115
6.069374999999990905e+01 6.286678295773779192e-115
6.090749999999991360e+01 1.649754293723167216e-115
6.112124999999991815e+01 -7.238984439478424801e-115
6.133499999999992269e+01 -2.043934502556668165e-114
6.154874999999992724e+01 -3.652754230040467637e-114
6.176249999999993179e+01 -5.198272654669084943e-114
6.197624999999990791e+01 -6.084022100869830377e-114
6.218999999999991246e+01 -5.492366561514972329e-114
6.240374999999991701e+01 -2.500010339121864258e-114
6.261749999999992156e+01 3.685724766385838269e-114
6.283124999999992610e+01 1.336094263120115872e-113
6.304499999999993065e+01 2.585709181971958001e-113
6.325874999999990678e+01 3.905177738158486216e-113
6.347249999999991132e+01 4.900460591590893027e-113
6.368624999999991587e+01 4.992816113525633978e-113
6.389999999999992042e+01 3.474555160170728258e-113
6.411374999999992497e+01 -3.524519527152421665e-114
6.432749999999992951e+01 -6.940966484276316293e-113
6.454124999999990564e+01 -1.617168545393541308e-112
6.475499999999991019e+01 -2.697580061640442428e-112
6.496874999999991473e+01 -3.699168322028370242e-112
6.518249999999991928e+01 -4.238984573069151047e-112
6.539624999999992383e+01 -3.804179573024742708e-112
6.560999999999992838e+01 -1.822354595304160253e-112
6.582374999999990450e+01 2.198971291914397731e-112
6.603749999999990905e+01 8.458859490280441980e-112
6.625124999999991360e+01 1.659026485602347891e-111
6.646499999999991815e+01 2.537193142846473398e-111
6.667874999999992269e+01 3.250407241698317039e-111
6.689249999999992724e+01 3.456251922764437323e-111
6.710624999999990337e+01 2.727063224592986407e-111
6.731999999999990791e+01 6.226916866388393941e-112
6.753374999999991246e+01 -3.181847577951755026e-111
6.774749999999991701e+01 -8.714948008669787909e-111
6.796124999999992156e+01 -1.549159705523141597e-110
6.817499999999992610e+01 -2.230310560691468257e-110
6.838874999999990223e+01 -2.708223347245204996e-110
6.860249999999990678e+01 -2.693698195269559484e-110
6.881624999999991132e+01 -1.845912275580259361e-110
6.902999999999991587e+01 1.597085237110937388e-111
6.924374999999992042e+01 3.521729335305470566e-110
6.945749999999992497e+01 8.165520115015165659e-110
6.967124999999990109e+01 1.357744266830925779e-109
6.988499999999990564e+01 1.865762757209033181e-109
7.009874999999991019e+01 2.164828561050451802e-109
7.031249999999991473e+01 2.021050734223641392e-109
7.052624999999991928e+01 1.172749509829235867e-109
7.073999999999992383e+01 -6.102765884487178263e-110
7.095374999999989996e+01 -3.436619665055448829e-109
7.116749999999990450e+01 -7.178247540398705792e-109
7.138124999999990905e+01 -1.134801362055377153e-108
7.159499999999991360e+01 -1.500102306098580225e-108
7.180874999999991815e+01 -1.670514044722049528e-108
7.202249999999992269e+01 -1.463579522624394993e-108
7.223624999999989882e+01 -6.850388705868249643e-109
7.244999999999990337e+01 8.218481538124767529e-109
7.266374999999990791e+01 3.105012415163970714e-108
7.287749999999991246e+01 6.016642532896797277e-108
7.309124999999991701e+01 9.125734106866496677e-108
7.330499999999992156e+01 1.165543195432054738e-107
7.351874999999989768e+01 1.247996963583150872e-107
7.373249999999990223e+01 1.022157060999712682e-107
7.394624999999990678e+01 3.485084544115027673e-108
7.415999999999991132e+01 -8.747207080532696832e-108
7.437374999999991587e+01 -2.657014980097466777e-107
7.458749999999992042e+01 -4.851932728276680741e-107
7.480124999999992497e+01 -7.096901795321486757e-107
7.501499999999990109e+01 -8.776182142010979558e-107
7.522874999999990564e+01 -9.032896005214496131e-107
7.544249999999991019e+01 -6.858692256635772258e-107
7.565624999999991473e+01 -1.285725786865583215e-107
7.586999999999991928e+01 8.307928556836303303e-107
7.608374999999992383e+01 2.179388123881726620e-106
7.629749999999989996e+01 3.784245492005683643e-106
7.651124999999990450e+01 5.352487248205931712e-106
7.672499999999990905e+01 6.411744388603851195e-106
7.693874999999991360e+01 6.329440790093031705e-106
7.715249999999991815e+01 4.390446855249637447e-106
7.736624999999992269e+01 -5.162814613752953797e-108
7.757999999999989882e+01 -7.345573645210200898e-106
7.779374999999990337e+01 -1.725193566626681959e-105
7.800749999999990791e+01 -2.863417655089439183e-105
7.822124999999991246e+01 -3.920824334108338638e-105
7.843499999999991701e+01 -4.545927008262335910e-105
7.864874999999992156e+01 -4.285557176032858842e-105
7.886249999999989768e+01 -2.648792140499736800e-105
7.907624999999990223e+01 7.777985225702900110e-106
7.928999999999990678e+01 6.163849684802674436e-105
7.950374999999991132e+01 1.323279708555846131e-104
7.971749999999991587e+01 2.105802983870888901e-104
7.993124999999992042e+01 2.791449420730380558e-104
8.014499999999989654e+01 3.126268262077943347e-104
8.035874999999990109e+01 2.795269878169186165e-104
8.057249999999990564e+01 1.472869479118567855e-104
8.078624999999991019e+01 -1.092081629476739248e-104
8.099999999999991473e+01 -4.959068169165679782e-104
8.121374999999991928e+01 -9.859468971300242330e-104
8.142749999999989541e+01 -1.506739475246659532e-103
8.164124999999989996e+01 -1.931871690968543237e-103
8.185499999999990450e+01 -2.083100462772531868e-103
8.206874999999990905e+01 -1.748132590782851241e-103
8.228249999999991360e+01 -7.189661808422594427e-104
8.249624999999991815e+01 1.147266846701429635e-103
8.270999999999989427e+01 3.848147242761205060e-103
8.292374999999989882e+01 7.147084315169797159e-103
8.313749999999990337e+01 1.049523906475561221e-102
8.335124999999990791e+01 1.299275611277058279e-102
8.356499999999991246e+01 1.342425705373054830e-102
8.377874999999991701e+01 1.040413465806944341e-102
8.399249999999989313e+01 2.658162119016625082e-103
8.420624999999989768e+01 -1.055403438629559933e-102
8.441999999999990223e+01 -2.890771474639447636e-102
8.463374999999990678e+01 -5.045497172215908036e-102
8.484749999999991132e+01 -7.117918051858014948e-102
8.506124999999991587e+01 -8.485434035276161809e-102
8.527499999999989200e+01 -8.343316990173911889e-102
8.548874999999989654e+01 -5.817578308874392721e-102
8.570249999999990109e+01 -1.652318950468376667e-103
8.591624999999990564e+01 8.941008944452452617e-102
8.612999999999991019e+01 2.107185073476606366e-101
8.634374999999991473e+01 3.470522600361298136e-101
8.655749999999989086e+01 4.699090644080744016e-101
8.677124999999989541e+01 5.374166105739125857e-101
8.698499999999989996e+01 4.978905088862997306e-101
8.719874999999990450e+01 2.982327203503972032e-101
8.741249999999990905e+01 -1.022658318955422017e-101
8.762624999999991360e+01 -7.133178161972683313e-101
8.783999999999991815e+01 -1.492515679358359075e-100
8.805374999999989427e+01 -2.326038028474084613e-100
8.826749999999989882e+01 -3.017606577709461485e-100
8.848124999999990337e+01 -3.293636359340668658e-100
8.869499999999990791e+01 -2.832743080228155846e-100
8.890874999999991246e+01 -1.325860467646361049e-100
8.912249999999991701e+01 1.431551743987501316e-100
8.933624999999989313e+01 5.421725323017384413e-100
8.954999999999989768e+01 1.027864541264549189e-99
8.976374999999990223e+01 1.518387082271396429e-99
8.997749999999990678e+01 1.882558697494897925e-99
9.019124999999991132e+01 1.946923987716332548e-99
9.040499999999991587e+01 1.518563875748011979e-99
9.061874999999989200e+01 4.265839046208269755e-100
9.083249999999989654e+01 -1.418223454647869634e-99
9.104624999999990109e+01 -3.951346449812003475e-99
9.125999999999990564e+01 -6.882741744425998198e-99
9.147374999999991019e+01 -9.645094289465535792e-99
9.168749999999991473e+01 -1.138801032186315985e-98
9.190124999999989086e+01 -1.104637418536096113e-98
9.211499999999989541e+01 -7.507067924748008223e-99
9.232874999999989996e+01 1.147725833763416578e-100
9.254249999999990450e+01 1.210241548634537961e-98
9.275624999999990905e+01 2.771338468014674686e-98
9.296999999999991360e+01 4.479138256486864075e-98
9.318374999999988972e+01 5.954124459245316405e-98
9.339749999999989427e+01 6.662213243035248117e-98
9.361124999999989882e+01 5.971602181642768997e-98
9.382499999999990337e+01 3.268836259280736936e-98
9.403874999999990791e+01 -1.863742311691514592e-98
9.425249999999991246e+01 -9.422547741659196748e-98
9.446624999999988859e+01 -1.874345434209573406e-97
9.467999999999989313e+01 -2.830603239783156969e-97
9.489374999999989768e+01 -3.565944899350850743e-97
9.510749999999990223e+01 -3.755933539232660375e-97
9.532124999999990678e+01 -3.039801739795910210e-97
9.553499999999991132e+01 -1.097718100712072635e-97
9.574874999999988745e+01 2.239352079932258014e-97
9.596249999999989200e+01 6.858650393751227626e-97
9.617624999999989654e+01 1.223716663901266851e-96
9.638999999999990109e+01 1.735203198221020894e-96
9.660374999999990564e+01 2.067593455554033057e-96
9.681749999999991019e+01 2.030655036850938120e-96
9.703124999999988631e+01 1.427006001706446091e-96
9.724499999999989086e+01 1.014013554983166328e-97
9.745874999999989541e+01 -1.993801065749388038e-96
9.767249999999989996e+01 -4.725673241297034617e-96
9.788624999999990450e+01 -7.715793681654115709e-96
9.809999999999990905e+01 -1.030538692349679058e-95
9.831374999999988518e+01 -1.157664765524574250e-95
9.852749999999988972e+01 -1.045567825172038985e-95
9.874124999999989427e+01 -5.914513084912701430e-96
9.895499999999989882e+01 2.727372740817834562e-96
9.916874999999990337e+01 1.542827885686768369e-95
9.938249999999990791e+01 3.103661964848106166e-95
9.959624999999988404e+01 4.698749974905378180e-95
9.980999999999988859e+01 5.921133855916717737e-95
1.000237499999998931e+02 6.239547914801459941e-95
1.002374999999998977e+02 5.072210462146435735e-95
1.004512499999999022e+02 1.914539730641687133e-95
1.006649999999999068e+02 -3.483936013596856693e-95
1.008787499999998829e+02 -1.091396236606028894e-94
1.010924999999998875e+02 -1.951155735375219656e-94
1.013062499999998920e+02 -2.763146584600827076e-94
1.015199999999998965e+02 -3.285998487989056689e-94
1.017337499999999011e+02 -3.223925623593572117e-94
1.019474999999999056e+02 -2.275767860616352223e-94
1.021612499999999102e+02 -2.119655877482056061e-95
1.023749999999998863e+02 3.025935811167499655e-94
1.025887499999998909e+02 7.217553966338576661e-94
1.028024999999998954e+02 1.177187387133206037e-93
1.030162499999999000e+02 1.568426567878125408e-93
1.032299999999999045e+02 1.757982580563087983e-93
1.034437499999999091e+02 1.587769784367048995e-93
1.036574999999998852e+02 9.097467628733405592e-94
1.038712499999998897e+02 -3.697628473105317416e-94
1.040849999999998943e+02 -2.236488105389688093e-93
1.042987499999998988e+02 -4.514573045776188259e-93
1.045124999999999034e+02 -6.826972231545776606e-93
1.047262499999999079e+02 -8.587708143032921209e-93
1.049399999999998840e+02 -9.044827442356473307e-93
1.051537499999998886e+02 -7.389471296907788225e-93
1.053674999999998931e+02 -2.937204727077279532e-93
1.055812499999998977e+02 4.627984419414618848e-93
1.057949999999999022e+02 1.497803821425303514e-92
1.060087499999999068e+02 2.688901924247681852e-92
1.062224999999998829e+02 3.809127790641339603e-92
1.064362499999998875e+02 4.531369834391321866e-92
1.066499999999998920e+02 4.461124662310469746e-92
1.068637499999998965e+02 3.203738450100442732e-92
1.070774999999999011e+02 4.664931189699706811e-93
1.072912499999999056e+02 -3.812979750650293285e-92
1.075049999999998818e+02 -9.331691170520295765e-92
1.077187499999998863e+02 -1.531126240963513413e-91
1.079324999999998909e+02 -2.045412774597622531e-91
1.081462499999998954e+02 -2.301116573252746181e-91
1.083599999999999000e+02 -2.100018056546304345e-91
1.085737499999999045e+02 -1.259574936151025641e-91
1.087874999999998806e+02 3.322841328982549642e-92
1.090012499999998852e+02 2.652630247481048233e-91
1.092149999999998897e+02 5.480916673747922906e-91
1.094287499999998943e+02 8.355300506228248801e-91
1.096424999999998988e+02 1.056863240218818625e-90
1.098562499999999034e+02 1.122507167342741836e-90
1.100699999999998795e+02 9.373246077175938730e-91
1.102837499999998840e+02 4.220241731310382278e-91
1.104974999999998886e+02 -4.587813754251727029e-91
1.107112499999998931e+02 -1.665688907529048525e-90
1.109249999999998977e+02 -3.057243500191914573e-90
1.111387499999999022e+02 -4.375024029032302401e-90
1.113524999999998784e+02 -5.250962366431161657e-90
1.115662499999998829e+02 -5.246001752391348671e-90
1.117799999999998875e+02 -3.925719181620094101e-90
1.119937499999998920e+02 -9.719230193463921961e-91
1.122074999999998965e+02 3.680354480810205275e-90
1.124212499999999011e+02 9.702630246445879892e-90
1.126349999999998772e+02 1.626326308857234454e-89
1.128487499999998818e+02 2.199069304474845793e-89
1.130624999999998863e+02 2.505419919296758029e-89
1.132762499999998909e+02 2.339867744958988434e-89
1.134899999999998954e+02 1.514878712992302436e-89
1.137037499999999000e+02 -8.373473242286000984e-91
1.139174999999998761e+02 -2.433169112666216709e-89
1.141312499999998806e+02 -5.313655557144293898e-89
1.143449999999998852e+02 -8.268870145344918482e-89
1.145587499999998897e+02 -1.060628694052764547e-88
1.147724999999998943e+02 -1.145632335370189278e-88
1.149862499999998988e+02 -9.903369881357689336e-89
1.151999999999998749e+02 -5.190057496159379861e-89
1.154137499999998795e+02 3.021470585500138377e-89
1.156274999999998840e+02 1.436928738074189782e-88
1.158412499999998886e+02 2.755288420972547423e-88
1.160549999999998931e+02 4.021420206266325640e-88
1.162687499999998977e+02 4.902355734668159792e-88
1.164824999999999022e+02 5.004422345131637275e-88
1.166962499999998784e+02 3.941461643611988452e-88
1.169099999999998829e+02 1.432655141917555123e-88
1.171237499999998875e+02 -2.580486537466171504e-88
1.173374999999998920e+02 -7.817914798741600006e-88
1.175512499999998965e+02 -1.357446577686024894e-87
1.177649999999999011e+02 -1.869760423446705751e-87
1.179787499999998772e+02 -2.166411175260644934e-87
1.181924999999998818e+02 -2.078171831770053240e-87
1.184062499999998863e+02 -1.452276890272864431e-87
1.186199999999998909e+02 -1.967872049998851639e-88
1.188337499999998954e+02 1.669930223594346259e-87
1.190474999999999000e+02 3.974366918363858281e-87
1.192612499999998761e+02 6.360649520398810577e-87
1.194749999999998806e+02 8.295349975752733276e-87
1.196887499999998852e+02 9.117317737520568992e-87
1.199024999999998897e+02 8.140280256957758223e-87
1.201162499999998943e+02 4.806519319561263034e-87
1.203299999999998988e+02 -1.123227861841656846e-87
1.205437499999998749e+02 -9.373770843960389159e-87
1.207574999999998795e+02 -1.899807299417955487e-86
1.209712499999998840e+02 -2.831315942599956555e-86
1.211849999999998886e+02 -3.498500843641909538e-86
1.213987499999998931e+02 -3.630596031055259930e-86
1.216124999999998977e+02 -2.968021749861026099e-86
1.218262499999998738e+02 -1.328930082507358259e-86
1.220399999999998784e+02 1.314617350578786759e-86
1.222537499999998829e+02 4.765077520845217974e-86
1.224674999999998875e+02 8.551598508077565286e-86
1.226812499999998920e+02 1.192739214954969697e-85
1.228949999999998965e+02 1.393184043198217456e-85
1.231087499999998727e+02 1.352939537248552574e-85
1.233224999999998772e+02 9.823806970721807439e-86
1.235362499999998818e+02 2.327416326539328997e-86
1.237499999999998863e+02 -8.756417103741284894e-86
1.239637499999998909e+02 -2.230011425651729530e-85
1.241774999999998954e+02 -3.614393806915076166e-85
1.243912499999998715e+02 -4.719014320119202309e-85
1.246049999999998761e+02 -5.175844377871236738e-85
1.248187499999998806e+02 -4.622282488348497487e-85
1.250324999999998852e+02 -2.788969691955740198e-85