2.024999999999579359e-01 4.685944506668193067e-148
4.162499999999482725e-01 4.774422849084867662e-148
6.299999999999528200e-01 2.443150275549831886e-148
8.437499999999573674e-01 -4.152391621838175972e-148
1.057499999999947704e+00 -1.694187354783878096e-147
1.271249999999952252e+00 -3.703596768287817660e-147
1.484999999999956799e+00 -6.312393879243155037e-147
1.698749999999947136e+00 -8.914220049747872078e-147
1.912499999999951683e+00 -1.015222657800357204e-146
2.126249999999956231e+00 -7.692019704867497339e-147
2.339999999999946567e+00 1.781865879085318811e-147
2.553749999999951115e+00 2.207199993370686255e-146
2.767499999999955662e+00 5.612463141855513029e-146
2.981249999999945999e+00 1.034915336849260671e-145
3.194999999999950546e+00 1.564407599745099595e-145
3.408749999999955094e+00 1.950524997649784680e-145
3.622499999999945430e+00 1.825451550627895165e-145
3.836249999999949978e+00 6.343990544620826154e-146
4.049999999999954525e+00 -2.311536546431239867e-145
4.263749999999944862e+00 -7.653261621828480310e-145
4.477499999999949409e+00 -1.560983732580267370e-144
4.691249999999953957e+00 -2.537149002645006165e-144
4.904999999999944293e+00 -3.428387433350149502e-144
5.118749999999948841e+00 -3.697812814477434927e-144
5.332499999999953388e+00 -2.480667649228984943e-144
5.546249999999943725e+00 1.378744811822453428e-144
5.759999999999948272e+00 9.106730193275158893e-144
5.973749999999952820e+00 2.149117836893537800e-143
6.187499999999943157e+00 3.799625110502953928e-143
6.401249999999947704e+00 5.549273179747504715e-143
6.614999999999952252e+00 6.676948753354437999e-143
6.828749999999942588e+00 5.928278410052331462e-143
7.042499999999947136e+00 1.500442075697400663e-143
7.256249999999951683e+00 -8.731633209854766335e-143
7.469999999999942020e+00 -2.658148333221597096e-142
7.683749999999946567e+00 -5.234754794583986350e-142
7.897499999999951115e+00 -8.296166355268321205e-142
8.111249999999941451e+00 -1.096251149580951808e-141
8.324999999999945999e+00 -1.154559239409709469e-141
8.538749999999950546e+00 -7.424760682171892904e-142
8.752499999999940883e+00 4.785262459870100269e-142
8.966249999999945430e+00 2.852791481592886121e-141
9.179999999999949978e+00 6.578735893446787065e-141
9.393749999999940314e+00 1.145582912421235813e-140
9.607499999999944862e+00 1.653408982244440971e-140
9.821249999999949409e+00 1.971837285570956289e-140
1.003499999999993975e+01 1.745750662315961109e-140
1.024874999999994429e+01 4.752162572289348059e-141
1.046249999999994884e+01 -2.417331317491007222e-140
1.067624999999993918e+01 -7.411297814432728452e-140
1.088999999999994373e+01 -1.456426470259957931e-139
1.110374999999994827e+01 -2.302497821174989046e-139
1.131749999999993861e+01 -3.042403083809247837e-139
1.153124999999994316e+01 -3.228256627082078606e-139
1.174499999999994770e+01 -2.172317227123982400e-139
1.195874999999993804e+01 1.006075571070311167e-139
1.217249999999994259e+01 7.196689860959029331e-139
1.238624999999994714e+01 1.691192281136116435e-138
1.259999999999993747e+01 2.965129921958687773e-138
1.281374999999994202e+01 4.303155967599417546e-138
1.302749999999994657e+01 5.181685967759902107e-138
1.324124999999995111e+01 4.717223896070654879e-138
1.345499999999994145e+01 1.671052357991491847e-138
1.366874999999994600e+01 -5.383926386377341623e-138
1.388249999999995055e+01 -1.763481008066121016e-137
1.409624999999994088e+01 -3.524920831888126002e-137
1.430999999999994543e+01 -5.621505319374234884e-137
1.452374999999994998e+01 -7.490695303292883167e-137
1.473749999999994031e+01 -8.072092138560906361e-137
1.495124999999994486e+01 -5.745122869026603987e-137
1.516499999999994941e+01 1.553175570139835198e-137
1.537874999999993975e+01 1.589199143552952588e-136
1.559249999999994429e+01 3.844841757441603980e-136
1.580624999999994884e+01 6.805533461277055445e-136
1.601999999999993918e+01 9.925107068667095980e-136
1.623374999999994373e+01 1.201632876522010643e-135
1.644749999999994827e+01 1.109794502448298917e-135
1.666124999999993861e+01 4.428324642933388509e-136
1.687499999999994316e+01 -1.109501493369048993e-135
1.708874999999994770e+01 -3.796468141350287665e-135
1.730249999999993804e+01 -7.635309680407239986e-135
1.751624999999994259e+01 -1.216428691602051548e-134
1.772999999999994714e+01 -1.614883406414151834e-134
1.794374999999993747e+01 -1.732007150960793074e-134
1.815749999999994202e+01 -1.229196863627936605e-134
1.837124999999994657e+01 3.124676034586648698e-135
1.858499999999993690e+01 3.294295744837193043e-134
1.879874999999994145e+01 7.910179225791739799e-134
1.901249999999994600e+01 1.385353416370456078e-133
1.922624999999993634e+01 1.994260338406760013e-133
1.943999999999994088e+01 2.374254463483434260e-133
1.965374999999994543e+01 2.134272913365783126e-133
1.986749999999993577e+01 7.539541183412298545e-134
2.008124999999994031e+01 -2.324897582466877047e-133
2.029499999999994486e+01 -7.499833977324751465e-133
2.050874999999993520e+01 -1.468050675963520386e-132
2.072249999999993975e+01 -2.284409433400781983e-132
2.093624999999994429e+01 -2.954587101423703960e-132
2.114999999999993463e+01 -3.054737196508311017e-132
2.136374999999993918e+01 -1.983367502098696677e-132
2.157749999999994373e+01 9.608185175765324193e-133
2.179124999999993406e+01 6.383648337584432799e-132
2.200499999999993861e+01 1.445072942352298959e-131
2.221874999999994316e+01 2.439281298200913755e-131
2.243249999999993349e+01 3.392302341930077757e-131
2.264624999999993804e+01 3.872351339907438412e-131
2.285999999999994259e+01 3.228058563526077840e-131
2.307374999999993292e+01 6.468232774079583321e-132
2.328749999999993747e+01 -4.665037050517740941e-131
2.350124999999994202e+01 -1.313927751896890338e-130
2.371499999999993236e+01 -2.432714396484799328e-130
2.392874999999993690e+01 -3.625263138034091507e-130
2.414249999999994145e+01 -4.478176705969635495e-130
2.435624999999993179e+01 -4.327984766089190763e-130
2.456999999999993634e+01 -2.296367100400761245e-130
2.478374999999994088e+01 2.555005033053331044e-130
2.499749999999993122e+01 1.090216563910700474e-129
2.521124999999993577e+01 2.264498428667362107e-129
2.542499999999994031e+01 3.623279419781311295e-129
2.563874999999993065e+01 4.795347075977775205e-129
2.585249999999993520e+01 5.143727898613814986e-129
2.606624999999993975e+01 3.776861794500653492e-129
2.627999999999994429e+01 -3.288766041623389392e-130
2.649374999999993463e+01 -8.043568572300043454e-129
2.670749999999993918e+01 -1.960164678265993970e-128
2.692124999999994373e+01 -3.393782945691056557e-128
2.713499999999993406e+01 -4.794044017315881554e-128
2.734874999999993861e+01 -5.584222219484479222e-128
2.756249999999994316e+01 -4.910953706923223647e-128
2.777624999999993349e+01 -1.731386806753828273e-128
2.798999999999993804e+01 4.948894689604016097e-128
2.820374999999994259e+01 1.564736961776800555e-127
2.841749999999993292e+01 2.978503085450738434e-127
2.863124999999993747e+01 4.494900767389551922e-127
2.884499999999994202e+01 5.621968686522370666e-127
2.905874999999993236e+01 5.587746864413534921e-127
2.927249999999993690e+01 3.392987698269000021e-127
2.948624999999994145e+01 -2.003641699497262119e-127
2.969999999999993179e+01 -1.132491525148521627e-126
2.991374999999993634e+01 -2.442633434765050368e-126
3.012749999999994088e+01 -3.960760587581590393e-126
3.034124999999993122e+01 -5.292664046291219876e-126
3.055499999999993577e+01 -5.777783326159055544e-126
3.076874999999994031e+01 -4.511721092611348793e-126
3.098249999999993065e+01 -4.794725648620834559e-127
3.119624999999993520e+01 7.157670874635373771e-126
3.140999999999993975e+01 1.860034802306619300e-125
3.162374999999993008e+01 3.280107800770743821e-125
3.183749999999993463e+01 4.680996728450632005e-125
3.205124999999993918e+01 5.528281655871674247e-125
3.226499999999992951e+01 5.046852056961585181e-125
3.247874999999993406e+01 2.307584978454122438e-125
3.269249999999993861e+01 -3.557707290173712789e-125
3.290624999999992895e+01 -1.298703417831034476e-124
3.311999999999993349e+01 -2.547419681945535400e-124
3.333374999999993804e+01 -3.898035686402022524e-124
3.354749999999992838e+01 -4.942592808373632437e-124
3.376124999999993292e+01 -5.051332206669462902e-124
3.397499999999993747e+01 -3.421256938585666214e-124
3.418874999999992781e+01 7.732143506827674686e-125
3.440249999999993236e+01 8.100017116032038750e-124
3.461624999999993690e+01 1.845706472988203894e-123
3.482999999999992724e+01 3.057082872530197069e-123
3.504374999999993179e+01 4.151534708826574766e-123
3.525749999999993634e+01 4.644063181927829603e-123
3.547124999999992667e+01 3.877383984888330948e-123
3.568499999999993122e+01 1.119516469943893820e-123
3.589874999999993577e+01 -4.234865381855151646e-123
3.611249999999992610e+01 -1.234937364978066494e-122
3.632624999999993065e+01 -2.253984020553781539e-122
3.653999999999993520e+01 -3.284996056298274003e-122
3.675374999999992554e+01 -3.974446466785216395e-122
3.696749999999993008e+01 -3.811958889922087660e-122
3.718124999999993463e+01 -2.187350003458405575e-122
3.739499999999992497e+01 1.473022038167687840e-122
3.760874999999992951e+01 7.477175106395556273e-122
3.782249999999993406e+01 1.555443347510984316e-121
3.803624999999993861e+01 2.450319827042444959e-121
3.824999999999994316e+01 3.189234044251569680e-121
3.846374999999991928e+01 3.396110868370226190e-121
3.867749999999992383e+01 2.590370045205031640e-121
3.889124999999992838e+01 2.732491179606565863e-122
3.910499999999993292e+01 -3.913956676390512715e-121
3.931874999999993747e+01 -9.959929249702634218e-121
3.953249999999994202e+01 -1.720671703031626502e-120
3.974624999999991815e+01 -2.408647217343682401e-120
3.995999999999992269e+01 -2.797192797003806219e-120
4.017374999999992724e+01 -2.527708811767497212e-120
4.038749999999993179e+01 -1.196076327669786098e-120
4.060124999999993634e+01 1.543846898509203493e-120
4.081499999999994088e+01 5.819311604941548755e-120
4.102874999999991701e+01 1.133245114896219447e-119
4.124249999999992156e+01 1.714520120310965763e-119
4.145624999999992610e+01 2.152170191440857603e-119
4.166999999999993065e+01 2.192383687159393664e-119
4.188374999999993520e+01 1.527396743421816912e-119
4.209749999999993975e+01 -1.407775578312090371e-120
4.231124999999991587e+01 -2.993207838049471809e-119
4.252499999999992042e+01 -6.947795557754384808e-119
4.273874999999992497e+01 -1.149448018030684295e-118
4.295249999999992951e+01 -1.555357975752915258e-118
4.316624999999993406e+01 -1.742134926102566147e-118
4.337999999999993861e+01 -1.488393835697238892e-118
4.359374999999991473e+01 -5.583207440911191475e-119
4.380749999999991928e+01 1.230605051551139132e-118
4.402124999999992383e+01 3.908875922063313598e-118
4.423499999999992838e+01 7.235714274127117369e-118
4.444874999999993292e+01 1.058411009473114353e-117
4.466249999999993747e+01 1.287113268379070591e-117
4.487624999999991360e+01 1.258864860051926052e-117
4.508999999999991815e+01 7.995508057195751179e-118
4.530374999999992269e+01 -2.477746467479463947e-118
4.551749999999992724e+01 -1.959443418025960191e-117
4.573124999999993179e+01 -4.249356422936999643e-117
4.594499999999993634e+01 -6.782633437427020044e-117
4.615874999999991246e+01 -8.909727127275768962e-117
4.637249999999991701e+01 -9.656757180021979089e-117
4.658624999999992156e+01 -7.814388173097287275e-117
4.679999999999992610e+01 -2.164908412134286511e-117
4.701374999999993065e+01 8.130239414664781927e-117
4.722749999999993520e+01 2.299686133933217612e-116
4.744124999999993975e+01 4.083991658084860395e-116
4.765499999999991587e+01 5.800576274551529015e-116
4.786874999999992042e+01 6.853622815831567466e-116
4.808249999999992497e+01 6.449355342880392847e-116
4.829624999999992951e+01 3.714214724776213569e-116
4.850999999999993406e+01 -2.080725879653997435e-116
4.872374999999993861e+01 -1.118863478125944342e-115
4.893749999999991473e+01 -2.298244501935600164e-115
4.915124999999991928e+01 -3.555637844639064177e-115
4.936499999999992383e+01 -4.546442666036282888e-115
4.957874999999992838e+01 -4.777123414373582974e-115
4.979249999999993292e+01 -3.660924190339615588e-115
5.000624999999993747e+01 -6.405007213901884251e-116
5.021999999999991360e+01 4.616571645732650528e-115
5.043374999999991815e+01 1.196255570343595551e-114
5.064749999999992269e+01 2.049533890431385388e-114
5.086124999999992724e+01 2.833904185709916828e-114
5.107499999999993179e+01 3.258480436426699423e-114
5.128874999999993634e+01 2.951626490123007295e-114
5.150249999999991246e+01 1.523681809399381200e-114
5.171624999999991701e+01 -1.323337777538182892e-114
5.192999999999992156e+01 -5.642528021508757029e-114
5.214374999999992610e+01 -1.106471594987349470e-113
5.235749999999993065e+01 -1.663643114705633015e-113
5.257124999999993520e+01 -2.073369685616210631e-113
5.278499999999991132e+01 -2.112777973368015406e-113
5.299874999999991587e+01 -1.528112432558233931e-113
5.321249999999992042e+01 -9.307871180378037071e-115
5.342624999999992497e+01 2.303552024939066357e-113
5.363999999999992951e+01 5.549303883105956158e-113
5.385374999999993406e+01 9.198342585574487666e-113
5.406749999999991019e+01 1.239397769440998525e-112
5.428124999999991473e+01 1.386778871680944606e-112
5.449499999999991928e+01 1.206461449358700716e-112
5.470874999999992383e+01 5.435268535991834733e-113
5.492249999999992838e+01 -7.086110597922559665e-113
5.513624999999993292e+01 -2.544913045072453455e-112
5.534999999999990905e+01 -4.779379634185492591e-112
5.556374999999991360e+01 -6.987051500016055167e-112
5.577749999999991815e+01 -8.482207743006971902e-112
5.599124999999992269e+01 -8.362203402295528437e-112
5.620499999999992724e+01 -5.644835312399379836e-112
5.641874999999993179e+01 4.839161198792962253e-113
5.663249999999990791e+01 1.031800025482937240e-111
5.684624999999991246e+01 2.321706381877667756e-111
5.705999999999991701e+01 3.721664821632193200e-111
5.727374999999992156e+01 4.879611459141928944e-111
5.748749999999992610e+01 5.297246548022139664e-111
5.770124999999993065e+01 4.389364841261237667e-111
5.791499999999990678e+01 1.606106852395859423e-111
5.812874999999991132e+01 -3.379914410092504661e-111
5.834249999999991587e+01 -1.043804630375260730e-110
5.855624999999992042e+01 -1.873674262901341079e-110
5.876999999999992497e+01 -2.656202590856923360e-110
5.898374999999992951e+01 -3.128942521535437776e-110
5.919749999999990564e+01 -2.961172339365004022e-110
5.941124999999991019e+01 -1.811041247431177824e-110
5.962499999999991473e+01 5.790918787290599885e-111
5.983874999999991928e+01 4.254441690343896626e-110
6.005249999999992383e+01 8.905105953665639543e-110
6.026624999999992838e+01 1.374280698773890367e-109
6.047999999999990450e+01 1.744568697848245675e-109
6.069374999999990905e+01 1.822882134599268261e-109
6.090749999999991360e+01 1.409534798443963419e-109
6.112124999999991815e+01 3.302250952344771149e-110
6.133499999999992269e+01 -1.496875416204317305e-109
6.154874999999992724e+01 -3.981172578471716403e-109
6.176249999999993179e+01 -6.782917251889091023e-109
6.197624999999990791e+01 -9.264453245650436821e-109
6.218999999999991246e+01 -1.050071185477233816e-108
6.240374999999991701e+01 -9.381296070244133132e-109
6.261749999999992156e+01 -4.828587447705324112e-109
6.283124999999992610e+01 3.863591716100349440e-109
6.304499999999993065e+01 1.659933833792740395e-108
6.325874999999990678e+01 3.203096052986301126e-108
6.347249999999991132e+01 4.721216055250664687e-108
6.368624999999991587e+01 5.751806543554995086e-108
6.389999999999992042e+01 5.701435915192059435e-108
6.411374999999992497e+01 3.943289185738305362e-108
6.432749999999992951e+01 -1.751052183171097951e-110
6.454124999999990564e+01 -6.319544696372107570e-108
6.475499999999991019e+01 -1.449305740313414384e-107
6.496874999999991473e+01 -2.323831097308692221e-107
6.518249999999991928e+01 -3.031777908222675263e-107
6.539624999999992383e+01 -3.266129829482444485e-107
6.560999999999992838e+01 -2.677897288831699677e-107
6.582374999999990450e+01 -9.541786604591504882e-108
6.603749999999990905e+01 2.068316980738436362e-107
6.625124999999991360e+01 6.266814742230688749e-107
6.646499999999991815e+01 1.109975017555095422e-106
6.667874999999992269e+01 1.551904401370368146e-106
6.689249999999992724e+01 1.797969752134671602e-106
6.710624999999990337e+01 1.660120813355133545e-106
6.731999999999990791e+01 9.522759264397857510e-107
6.753374999999991246e+01 -4.538083020081524854e-107
6.774749999999991701e+01 -2.556741771514372951e-106
6.796124999999992156e+01 -5.149473982761648708e-106
6.817499999999992610e+01 -7.758837131874494335e-106
6.838874999999990223e+01 -9.627529054359556457e-106
6.860249999999990678e+01 -9.768762488771218611e-106
6.881624999999991132e+01 -7.120303124101268521e-106
6.902999999999991587e+01 -8.112664101790806554e-107
6.924374999999992042e+01 9.470022572376209710e-106
6.945749999999992497e+01 2.305512830108432725e-105
6.967124999999990109e+01 3.791318770706926076e-105
6.988499999999990564e+01 5.044126636930334311e-105
7.009874999999991019e+01 5.558982573959351220e-105
7.031249999999991473e+01 4.748352789463746605e-105
7.052624999999991928e+01 2.064766552762757474e-105
7.073999999999992383e+01 -2.816052642261476306e-105
7.095374999999989996e+01 -9.769205575313766022e-105
7.116749999999990450e+01 -1.799214133441862375e-104
7.138124999999990905e+01 -2.583836926136458114e-104
7.159499999999991360e+01 -3.079791131561496891e-104
7.180874999999991815e+01 -2.971615956592101211e-104
7.202249999999992269e+01 -1.932770288578146681e-104
7.223624999999989882e+01 2.864198515861001639e-105
7.244999999999990337e+01 3.741321513104868244e-104
7.266374999999990791e+01 8.162560170625370674e-104
7.287749999999991246e+01 1.284243946894390152e-103
7.309124999999991701e+01 1.658065134739754530e-103
7.330499999999992156e+01 1.773950524459870627e-103
7.351874999999989768e+01 1.445691002268440604e-103
7.373249999999990223e+01 5.048460178323734108e-104
7.394624999999990678e+01 -1.140561452435534394e-103
7.415999999999991132e+01 -3.434791415285579858e-103
7.437374999999991587e+01 -6.103517322732477805e-103
7.458749999999992042e+01 -8.603699104454424734e-103
7.480124999999992497e+01 -1.012051394253435735e-102
7.501499999999990109e+01 -9.639636087588648965e-103
7.522874999999990564e+01 -6.118301135024607327e-103
7.544249999999991019e+01 1.235670645743245459e-103
7.565624999999991473e+01 1.259279817669460925e-102
7.586999999999991928e+01 2.708981732825269011e-102
7.608374999999992383e+01 4.246858026590456101e-102
7.629749999999989996e+01 5.489701711029651103e-102
7.651124999999990450e+01 5.912800919778820529e-102
7.672499999999990905e+01 4.914761999604809185e-102
7.693874999999991360e+01 1.941497775850577311e-102
7.715249999999991815e+01 -3.330979679019575077e-102
7.736624999999992269e+01 -1.077190018857765509e-101
7.757999999999989882e+01 -1.956754846224357550e-101
7.779374999999990337e+01 -2.805094430555418046e-101
7.800749999999990791e+01 -3.367007534651730897e-101
7.822124999999991246e+01 -3.318341184593211097e-101
7.843499999999991701e+01 -2.315959176962414136e-101
7.864874999999992156e+01 -8.183488441368106980e-103
7.886249999999989768e+01 3.482303875073332408e-101
7.907624999999990223e+01 8.163808061218247808e-101
7.928999999999990678e+01 1.331802711992497285e-100
7.950374999999991132e+01 1.779638347590330135e-100
7.971749999999991587e+01 1.997153586047368542e-100
7.993124999999992042e+01 1.790837251630036821e-100
8.014499999999989654e+01 9.717527466208020070e-101
8.035874999999990109e+01 -5.900799735668939266e-101
8.057249999999990564e+01 -2.896240912660013155e-100
8.078624999999991019e+01 -5.745736931030038109e-100
8.099999999999991473e+01 -8.673596990976920212e-100
8.121374999999991928e+01 -1.092621302909829521e-99
8.142749999999989541e+01 -1.150105236468685606e-99
8.164124999999989996e+01 -9.276598969165303325e-100
8.185499999999990450e+01 -3.248615663272965814e-100
8.206874999999990905e+01 7.130815302978803724e-100
8.228249999999991360e+01 2.154478444968194356e-99
8.249624999999991815e+01 3.840447742659450629e-99
8.270999999999989427e+01 5.455410778808345169e-99
8.292374999999989882e+01 6.523072502798329124e-99
8.313749999999990337e+01 6.443381697456434659e-99
8.335124999999990791e+01 4.583685598955680732e-99
8.356499999999991246e+01 4.301916403974713577e-100
8.377874999999991701e+01 -6.206880025473358637e-99
8.399249999999989313e+01 -1.495916941543532868e-98
8.420624999999989768e+01 -2.468342634699982761e-98
8.441999999999990223e+01 -3.332985375640101880e-98
8.463374999999990678e+01 -3.797850225914399555e-98
8.484749999999991132e+01 -3.512830343832516559e-98
8.506124999999991587e+01 -2.130332129015994155e-98
8.527499999999989200e+01 6.007576524939013538e-99
8.548874999999989654e+01 4.714109809292359416e-98
8.570249999999990109e+01 9.895062053389150178e-98
8.591624999999990564e+01 1.536901896928093954e-97
8.612999999999991019e+01 1.984951771590478503e-97
8.634374999999991473e+01 2.159297954624134981e-97
8.655749999999989086e+01 1.860503761657551592e-97
8.677124999999989541e+01 9.028129539077858425e-98
8.698499999999989996e+01 -8.291442887904390048e-98
8.719874999999990450e+01 -3.310722934785190288e-97
8.741249999999990905e+01 -6.305932898959676903e-97
8.762624999999991360e+01 -9.312284907358851445e-97
8.783999999999991815e+01 -1.154530391501700103e-96
8.805374999999989427e+01 -1.198871482059789088e-96
8.826749999999989882e+01 -9.533347982272768172e-97
8.848124999999990337e+01 -3.217154781890778076e-97
8.869499999999990791e+01 7.441057163070594728e-97
8.890874999999991246e+01 2.205026326529497081e-96
8.912249999999991701e+01 3.896929591099470937e-96
8.933624999999989313e+01 5.504887507873253319e-96
8.954999999999989768e+01 6.562702329253898794e-96
8.976374999999990223e+01 6.491789363641778999e-96
8.997749999999990678e+01 4.690751126566973229e-96
9.019124999999991132e+01 6.799157052916684715e-97
9.040499999999991587e+01 -5.706944261362970751e-96
9.061874999999989200e+01 -1.410808113041763137e-95
9.083249999999989654e+01 -2.344003070116516883e-95
9.104624999999990109e+01 -3.178653665308602327e-95
9.125999999999990564e+01 -3.644403713890685828e-95
9.147374999999991019e+01 -3.419683381681427661e-95
9.168749999999991473e+01 -2.187476791620706613e-95
9.190124999999989086e+01 2.798838408572924388e-96
9.211499999999989541e+01 4.013265910287224004e-95
9.232874999999989996e+01 8.732333299410621070e-95
9.254249999999990450e+01 1.375017840615614025e-94
9.275624999999990905e+01 1.793201751354654446e-94
9.296999999999991360e+01 1.974776076630894212e-94
9.318374999999988972e+01 1.745525846856056589e-94
9.339749999999989427e+01 9.436828785874339512e-95
9.361124999999989882e+01 -5.316005985496204398e-95
9.382499999999990337e+01 -2.661581310114442261e-94
9.403874999999990791e+01 -5.248796019603757916e-94
9.425249999999991246e+01 -7.872528771665141837e-94
9.446624999999988859e+01 -9.878170803406662780e-94
9.467999999999989313e+01 -1.042126486186223383e-93
9.489374999999989768e+01 -8.583926429975386966e-94
9.510749999999990223e+01 -3.572007190393182169e-94
9.532124999999990678e+01 5.015069672509406068e-94
9.553499999999991132e+01 1.687291732603399563e-93
9.574874999999988745e+01 3.069752542742811329e-93
9.596249999999989200e+01 4.399206644154495353e-93
9.617624999999989654e+01 5.307838770793728785e-93
9.638999999999990109e+01 5.341796518108666065e-93
9.660374999999990564e+01 4.032242515031832094e-93
9.681749999999991019e+01 1.007546237332705617e-93
9.703124999999988631e+01 -3.860645383731861295e-93
9.724499999999989086e+01 -1.029723209802584352e-92
9.745874999999989541e+01 -1.748310842546484677e-92
9.767249999999989996e+01 -2.398051665173685975e-92
9.788624999999990450e+01 -2.777776683444196416e-92
9.809999999999990905e+01 -2.650395385648311478e-92
9.831374999999988518e+01 -1.784698708852785552e-92
9.852749999999988972e+01 -1.734002789663573162e-94
9.874124999999989427e+01 2.670408316706735068e-92
9.895499999999989882e+01 6.073101451348078432e-92
9.916874999999990337e+01 9.697647555173272004e-92
9.938249999999990791e+01 1.274040253455028101e-91
9.959624999999988404e+01 1.413155226217944934e-91
9.980999999999988859e+01 1.267003402308783562e-91
1.000237499999998931e+02 7.261055078736012763e-92
1.002374999999998977e+02 -2.751741948277702825e-92
1.004512499999999022e+02 -1.719562143999628002e-91
1.006649999999999068e+02 -3.468912387918968143e-91
1.008787499999998829e+02 -5.237560000145321018e-91
1.010924999999998875e+02 -6.589520470750292346e-91
1.013062499999998920e+02 -6.972361660618533162e-91
1.015199999999998965e+02 -5.797754152419369908e-91
1.017337499999999011e+02 -2.571908715057657753e-91
1.019474999999999056e+02 2.931939958694510602e-91
1.021612499999999102e+02 1.048147527489399418e-90
1.023749999999998863e+02 1.921242841522377024e-90
1.025887499999998909e+02 2.752829297171242956e-90
1.028024999999998954e+02 3.313444821305143747e-90
1.030162499999999000e+02 3.326547675300333641e-90
1.032299999999999045e+02 2.514499487732176673e-90
1.034437499999999091e+02 6.678152342893647928e-91
1.036574999999998852e+02 -2.268177999785750287e-90
1.038712499999998897e+02 -6.102448030046809535e-90
1.040849999999998943e+02 -1.032392615331467241e-89
1.042987499999998988e+02 -1.407067953268252444e-89
1.045124999999999034e+02 -1.617191414582284390e-89
1.047262499999999079e+02 -1.528829332950356646e-89
1.049399999999998840e+02 -1.016388571354837391e-89
1.051537499999998886e+02 1.847489048342178190e-92
1.053674999999998931e+02 1.521669482647068612e-89
1.055812499999998977e+02 3.411725941763682355e-89
1.057949999999999022e+02 5.383883552773425971e-89
1.060087499999999068e+02 6.988263693666750961e-89
1.062224999999998829e+02 7.646270785242879916e-89
1.064362499999998875e+02 6.731902963137724963e-89
1.066499999999998920e+02 3.704552080799199664e-89
1.068637499999998965e+02 -1.714834771685793473e-89
1.070774999999999011e+02 -9.347162088653810633e-89
1.072912499999999056e+02 -1.837732349746301336e-88
1.075049999999998818e+02 -2.724851349245655448e-88
1.077187499999998863e+02 -3.368996140081237459e-88
1.079324999999998909e+02 -3.493558352298635228e-88
1.081462499999998954e+02 -2.817111582882406405e-88
1.083599999999999000e+02 -1.120838656514586392e-88
1.085737499999999045e+02 1.667185433774859392e-88
1.087874999999998806e+02 5.383718770764343705e-88
1.090012499999998852e+02 9.558099008560799984e-88
1.092149999999998897e+02 1.338160044123743057e-87
1.094287499999998943e+02 1.574585306611776210e-87
1.096424999999998988e+02 1.537369139669424121e-87
1.098562499999999034e+02 1.105396480864450602e-87
1.100699999999998795e+02 1.971524623241017356e-88
1.102837499999998840e+02 -1.190415204737554939e-87
1.104974999999998886e+02 -2.944004730456007724e-87
1.107112499999998931e+02 -4.806860319843361863e-87
1.109249999999998977e+02 -6.374242874223050538e-87
1.111387499999999022e+02 -7.123211637644597707e-87
1.113524999999998784e+02 -6.485493527193829637e-87
1.115662499999998829e+02 -3.965692728674708564e-87
1.117799999999998875e+02 7.030407332575215383e-88
1.119937499999998920e+02 7.386684940278247259e-87
1.122074999999998965e+02 1.539597275245648650e-86
1.124212499999999011e+02 2.339627794051982164e-86
1.126349999999998772e+02 2.943378059180430208e-86
1.128487499999998818e+02 3.112547575345075433e-86
1.130624999999998863e+02 2.604235625316973170e-86
1.132762499999998909e+02 1.228121926286194604e-86
1.134899999999998954e+02 -1.082785398954760978e-86
1.137037499999999000e+02 -4.198898293064496634e-86
1.139174999999998761e+02 -7.735062174385896594e-86
1.141312499999998806e+02 -1.102681127037603151e-85
1.143449999999998852e+02 -1.316383524345286605e-85
1.145587499999998897e+02 -1.309868797817477994e-85
1.147724999999998943e+02 -9.838615102543025061e-86
1.149862499999998988e+02 -2.711663828698234557e-86
1.151999999999998749e+02 8.323921220416817908e-86
1.154137499999998795e+02 2.238266613741057128e-85
1.156274999999998840e+02 3.744509366225468450e-85
1.158412499999998886e+02 5.033240348216906243e-85
1.160549999999998931e+02 5.695087291114295336e-85
1.162687499999998977e+02 5.286847280846094047e-85
1.164824999999999022e+02 3.423358630507594415e-85
1.166962499999998784e+02 -1.032957867519241325e-86
1.169099999999998829e+02 -5.193859137344476363e-85
1.171237499999998875e+02 -1.132789969615751718e-84
1.173374999999998920e+02 -1.750046276492874485e-84
1.175512499999998965e+02 -2.224734373842728904e-84
1.177649999999999011e+02 -2.379242932184747291e-84
1.179787499999998772e+02 -2.033591099116107971e-84
1.181924999999998818e+02 -1.047646953651552177e-84
1.184062499999998863e+02 6.274907061260379744e-85
1.186199999999998909e+02 2.897269491583297078e-84
1.188337499999998954e+02 5.482825334593793182e-84
1.190474999999999000e+02 7.906343370033402199e-84
1.192612499999998761e+02 9.517720543919964121e-84
1.194749999999998806e+02 9.574302811249285352e-84
1.196887499999998852e+02 7.377868587347223994e-84
1.199024999999998897e+02 2.461093057366425080e-84
1.201162499999998943e+02 -5.199561118502681379e-84
1.203299999999998988e+02 -1.498399974929457494e-83
1.205437499999998749e+02 -2.549525810420820000e-83
1.207574999999998795e+02 -3.455377239153782545e-83
1.209712499999998840e+02 -3.937598347874705168e-83
1.211849999999998886e+02 -3.697460819490091200e-83
1.213987499999998931e+02 -2.478104179219604674e-83
1.216124999999998977e+02 -1.437440459803119937e-84
1.218262499999998738e+02 3.235714893750948624e-83
1.220399999999998784e+02 7.312496832099151969e-83
1.222537499999998829e+02 1.142374396255396144e-82
1.224674999999998875e+02 1.461315571183176567e-82
1.226812499999998920e+02 1.573156887877987617e-82
1.228949999999998965e+02 1.362636931890545527e-82
1.231087499999998727e+02 7.412714771400528997e-83
1.233224999999998772e+02 -3.202895005424958231e-83
1.235362499999998818e+02 -1.760113963529633879e-82
1.237499999999998863e+02 -3.400755904815070471e-82
1.239637499999998909e+02 -4.942036320587895762e-82
1.241774999999998954e+02 -5.979751596215253462e-82
1.243912499999998715e+02 -6.056848712128546208e-82
1.246049999999998761e+02 -4.748679510560401487e-82
1.248187499999998806e+02 -1.776563838093382060e-82
1.250324999999998852e+02 2.865225323560541350e-82
1.252462499999998897e+02 8.793357822829706746e-82