2.024999999999579359e-01 -6.309769024069851636e-100
4.162499999999482725e-01 -7.414798176817475070e-100
6.299999999999528200e-01 -6.544619207132734287e-100
8.437499999999573674e-01 -2.293322839222190752e-100
1.057499999999947704e+00 6.641245925665775623e-100
1.271249999999952252e+00 2.085145745831348972e-99
1.484999999999956799e+00 3.936745710998462675e-99
1.698749999999947136e+00 5.868094762543554791e-99
1.912499999999951683e+00 7.192138780367656251e-99
2.126249999999956231e+00 6.863709255493578761e-99
2.339999999999946567e+00 3.578328577232674464e-99
2.553749999999951115e+00 -3.943859658101544382e-99
2.767499999999955662e+00 -1.644176315802379907e-98
2.981249999999945999e+00 -3.336716811903302534e-98
3.194999999999950546e+00 -5.200186444909388343e-98
3.408749999999955094e+00 -6.666174820036596855e-98
3.622499999999945430e+00 -6.836526992876058910e-98
3.836249999999949978e+00 -4.548096262823594308e-98
4.049999999999954525e+00 1.407591949634455832e-98
4.263749999999944862e+00 1.186429176876632951e-97
4.477499999999949409e+00 2.665335780830845277e-97
4.691249999999953957e+00 4.383353586461356429e-97
4.904999999999944293e+00 5.895040481889072780e-97
5.118749999999948841e+00 6.462753641311819546e-97
5.332499999999953388e+00 5.091400507643225220e-97
5.546249999999943725e+00 6.876429839294520073e-98
5.759999999999948272e+00 -7.614303855318972812e-97
5.973749999999952820e+00 -1.994585423488791889e-96
6.187499999999943157e+00 -3.505716396631474884e-96
6.401249999999947704e+00 -4.965581655048241829e-96
6.614999999999952252e+00 -5.796291786673666086e-96
6.828749999999942588e+00 -5.182416658670210306e-96
7.042499999999947136e+00 -2.177957359176115293e-96
7.256249999999951683e+00 4.053359458700998098e-96
7.469999999999942020e+00 1.384589238424453128e-95
7.683749999999946567e+00 2.650998772327289577e-95
7.897499999999951115e+00 3.976646975279959097e-95
8.111249999999941451e+00 4.930803626992904945e-95
8.324999999999945999e+00 4.874576295005473613e-95
8.538749999999950546e+00 3.026230770666842097e-95
8.752499999999940883e+00 -1.370956776146124117e-95
8.966249999999945430e+00 -8.758421991858799641e-95
9.179999999999949978e+00 -1.885807821978169319e-94
9.393749999999940314e+00 -3.020983893043429298e-94
9.607499999999944862e+00 -3.977037557219242998e-94
9.821249999999949409e+00 -4.276282626196781648e-94
1.003499999999993975e+01 -3.302386027907209332e-94
1.024874999999994429e+01 -4.107218968485732991e-95
1.046249999999994884e+01 4.866632244527420394e-94
1.067624999999993918e+01 1.252113340161140452e-93
1.088999999999994373e+01 2.170633041220856615e-93
1.110374999999994827e+01 3.039450546820752587e-93
1.131749999999993861e+01 3.518506405816323764e-93
1.153124999999994316e+01 3.144600113243117235e-93
1.174499999999994770e+01 1.398989006543050332e-93
1.195874999999993804e+01 -2.154912700106644670e-93
1.217249999999994259e+01 -7.658970383591225099e-93
1.238624999999994714e+01 -1.469049823277939456e-92
1.259999999999993747e+01 -2.198559762185234163e-92
1.281374999999994202e+01 -2.724579014683331054e-92
1.302749999999994657e+01 -2.715595604490770561e-92
1.324124999999995111e+01 -1.776330957221678036e-92
1.345499999999994145e+01 4.646572670334000217e-93
1.366874999999994600e+01 4.211092809433812369e-92
1.388249999999995055e+01 9.306634048002481794e-92
1.409624999999994088e+01 1.502405241495344819e-91
1.430999999999994543e+01 1.989395725503031464e-91
1.452374999999994998e+01 2.165966926413809814e-91
1.473749999999994031e+01 1.746467485943222292e-91
1.495124999999994486e+01 4.377192749917001763e-92
1.516499999999994941e+01 -1.968212793147062990e-91
1.537874999999993975e+01 -5.463157296870893727e-91
1.559249999999994429e+01 -9.670452307532108828e-91
1.580624999999994884e+01 -1.370659813263625305e-90
1.601999999999993918e+01 -1.611302753786788769e-90
1.623374999999994373e+01 -1.493035819017268633e-90
1.644749999999994827e+01 -7.991126711183997422e-91
1.666124999999993861e+01 6.512075253017581312e-91
1.687499999999994316e+01 2.917744643724381822e-90
1.708874999999994770e+01 5.834712355372280667e-90
1.730249999999993804e+01 8.906919532088563618e-90
1.751624999999994259e+01 1.124157182664341133e-89
1.772999999999994714e+01 1.156273772305154097e-89
1.794374999999993747e+01 8.360950469638345576e-90
1.815749999999994202e+01 2.223435073163347115e-91
1.837124999999994657e+01 -1.364640961855085254e-89
1.858499999999993690e+01 -3.273373145424591635e-89
1.879874999999994145e+01 -5.449239516233660510e-89
1.901249999999994600e+01 -7.376741103355176164e-89
1.922624999999993634e+01 -8.267528470438068954e-89
1.943999999999994088e+01 -7.127954313860830780e-89
1.965374999999994543e+01 -2.938322732301497366e-89
1.986749999999993577e+01 5.038481931288859042e-89
2.008124999999994031e+01 1.683100922993339957e-88
2.029499999999994486e+01 3.127358295386185810e-88
2.050874999999993520e+01 4.557618879355860621e-88
2.072249999999993975e+01 5.512395766511339721e-88
2.093624999999994429e+01 5.372243512720316940e-88
2.114999999999993463e+01 3.450584741599150165e-88
2.136374999999993918e+01 -8.341826804384808807e-89
2.157749999999994373e+01 -7.706229837111127768e-88
2.179124999999993406e+01 -1.672643846473516526e-87
2.200499999999993861e+01 -2.649452528026624645e-87
2.221874999999994316e+01 -3.445796655858716531e-87
2.243249999999993349e+01 -3.695708566611461413e-87
2.264624999999993804e+01 -2.964526385492074849e-87
2.285999999999994259e+01 -8.395411449432169487e-88
2.307374999999993292e+01 2.927664161601928201e-87
2.328749999999993747e+01 8.238272548670850481e-87
2.350124999999994202e+01 1.445350198708615631e-86
2.371499999999993236e+01 2.024557596872992027e-86
2.392874999999993690e+01 2.356632159586299178e-86
2.414249999999994145e+01 2.181775032699341063e-86
2.435624999999993179e+01 1.229987131340156935e-86
2.456999999999993634e+01 -7.027083590082800136e-87
2.478374999999994088e+01 -3.650222757113649259e-86
2.499749999999993122e+01 -7.358966232449489380e-86
2.521124999999993577e+01 -1.118455516511266363e-85
2.542499999999994031e+01 -1.404300277900417448e-85
2.563874999999993065e+01 -1.446512323544343688e-85
2.585249999999993520e+01 -1.080156805455198453e-85
2.606624999999993975e+01 -1.609344749473583953e-86
2.627999999999994429e+01 1.378544911112939365e-85
2.649374999999993463e+01 3.461055053780304577e-85
2.670749999999993918e+01 5.799036655342389613e-85
2.692124999999994373e+01 7.851875320176118957e-85
2.713499999999993406e+01 8.833008894280407703e-85
2.734874999999993861e+01 7.794970950399597305e-85
2.756249999999994316e+01 3.814063378442496012e-85
2.777624999999993349e+01 -3.720426335448541525e-85
2.798999999999993804e+01 -1.473584634762375628e-84
2.820374999999994259e+01 -2.808623021389996204e-84
2.841749999999993292e+01 -4.124694034042456391e-84
2.863124999999993747e+01 -5.023489267589808328e-84
2.884499999999994202e+01 -4.991205091552018568e-84
2.905874999999993236e+01 -3.480964168548788899e-84
2.927249999999993690e+01 -5.376871321865954330e-86
2.948624999999994145e+01 5.429024007836452070e-84
2.969999999999993179e+01 1.258799239099888571e-83
2.991374999999993634e+01 2.033177519932570546e-83
3.012749999999994088e+01 2.675769757670886739e-83
3.034124999999993122e+01 2.923095114776124618e-83
3.055499999999993577e+01 2.472288520042595633e-83
3.076874999999994031e+01 1.045990406380403164e-83
3.098249999999993065e+01 -1.512632425485076476e-83
3.119624999999993520e+01 -5.124955779646483049e-83
3.140999999999993975e+01 -9.363905955973582651e-83
3.162374999999993008e+01 -1.337666677343872792e-82
3.183749999999993463e+01 -1.588574261149381670e-82
3.205124999999993918e+01 -1.531263492203308662e-82
3.226499999999992951e+01 -1.005811984403128986e-82
3.247874999999993406e+01 1.052729950046262687e-83
3.269249999999993861e+01 1.819533207433900587e-82
3.290624999999992895e+01 3.993142063217102562e-82
3.311999999999993349e+01 6.270931363362509165e-82
3.333374999999993804e+01 8.068491695941801279e-82
3.354749999999992838e+01 8.609310304054153277e-82
3.376124999999993292e+01 7.036990949148088619e-82
3.397499999999993747e+01 2.612367177890356309e-82
3.418874999999992781e+01 -5.013329362382574431e-82
3.440249999999993236e+01 -1.548445914140845684e-81
3.461624999999993690e+01 -2.745217428768627143e-81
3.482999999999992724e+01 -3.840587536574225609e-81
3.504374999999993179e+01 -4.473793620406771967e-81
3.525749999999993634e+01 -4.215059661117723994e-81
3.547124999999992667e+01 -2.647698361575050891e-81
3.568499999999993122e+01 5.088825035424201307e-82
3.589874999999993577e+01 5.247483195388729416e-81
3.611249999999992610e+01 1.111950445568212741e-80
3.632624999999993065e+01 1.712108874438272457e-80
3.653999999999993520e+01 2.167187465156936410e-80
3.675374999999992554e+01 2.274168645465572484e-80
3.696749999999993008e+01 1.816888006570030101e-80
3.718124999999993463e+01 6.184214943859227173e-81
3.739499999999992497e+01 -1.389530173195793416e-80
3.760874999999992951e+01 -4.090372864149999856e-80
3.782249999999993406e+01 -7.116784385891688291e-80
3.803624999999993861e+01 -9.818834453335347494e-80
3.824999999999994316e+01 -1.129254944888224256e-79
3.846374999999991928e+01 -1.049265591662606668e-79
3.867749999999992383e+01 -6.442550891768455106e-80
3.889124999999992838e+01 1.465227745460270828e-80
3.910499999999993292e+01 1.311288338008842750e-79
3.931874999999993747e+01 2.731352175278004346e-79
3.953249999999994202e+01 4.157904916860884411e-79
3.974624999999991815e+01 5.211988353366657666e-79
3.995999999999992269e+01 5.419510561520713127e-79
4.017374999999992724e+01 4.289737334479152266e-79
4.038749999999993179e+01 1.438245110819823668e-79
4.060124999999993634e+01 -3.256152763996622184e-79
4.081499999999994088e+01 -9.485418884705137489e-79
4.102874999999991701e+01 -1.637712082339036602e-78
4.124249999999992156e+01 -2.244170018042676857e-78
4.145624999999992610e+01 -2.565757433730592650e-78
4.166999999999993065e+01 -2.374028040893323318e-78
4.188374999999993520e+01 -1.461578033901523926e-78
4.209749999999993975e+01 2.926324228034120569e-79
4.231124999999991587e+01 2.848372304919248079e-78
4.252499999999992042e+01 5.934740396059192749e-78
4.273874999999992497e+01 9.007326994393304689e-78
4.295249999999992951e+01 1.125628499572072968e-77
4.316624999999993406e+01 1.168811609530220196e-77
4.337999999999993861e+01 9.295658451633553782e-78
4.359374999999991473e+01 3.314586466728593326e-78
4.380749999999991928e+01 -6.458818526504777278e-78
4.402124999999992383e+01 -1.934213592931251863e-77
4.423499999999992838e+01 -3.351482740038395789e-77
4.444874999999993292e+01 -4.594094387641448606e-77
4.466249999999993747e+01 -5.257046555630162050e-77
4.487624999999991360e+01 -4.890021585966263670e-77
4.508999999999991815e+01 -3.092023563424230462e-77
4.530374999999992269e+01 3.616372730520770489e-78
4.551749999999992724e+01 5.377537864119819934e-77
4.573124999999993179e+01 1.141714634653960986e-76
4.594499999999993634e+01 1.742437998267932890e-76
4.615874999999991246e+01 2.185201557062630019e-76
4.637249999999991701e+01 2.282648354120763948e-76
4.658624999999992156e+01 1.847339060149298162e-76
4.679999999999992610e+01 7.395199094382185164e-77
4.701374999999993065e+01 -1.075052155684723355e-76
4.722749999999993520e+01 -3.467345755563892451e-76
4.744124999999993975e+01 -6.102117661316367466e-76
4.765499999999991587e+01 -8.427562848167510708e-76
4.786874999999992042e+01 -9.715138916410274634e-76
4.808249999999992497e+01 -9.162409841829103705e-76
4.829624999999992951e+01 -6.061584873214543659e-76
4.850999999999993406e+01 -2.097266791896361402e-78
4.872374999999993861e+01 8.792617920312723600e-76
4.893749999999991473e+01 1.944221881261481379e-75
4.915124999999991928e+01 3.010695671067616033e-75
4.936499999999992383e+01 3.813882122032988825e-75
4.957874999999992838e+01 4.035207580795017932e-75
4.979249999999993292e+01 3.357665463232125862e-75
5.000624999999993747e+01 1.545456834861410760e-75
5.021999999999991360e+01 -1.461183280184220970e-75
5.043374999999991815e+01 -5.452912469653241239e-75
5.064749999999992269e+01 -9.883917591077935429e-75
5.086124999999992724e+01 -1.385832166151985537e-74
5.107499999999993179e+01 -1.619731175049052967e-74
5.128874999999993634e+01 -1.560563104223188130e-74
5.150249999999991246e+01 -1.093952912008443376e-74
5.171624999999991701e+01 -1.554039374172456663e-75
5.192999999999992156e+01 1.232172712775421975e-74
5.214374999999992610e+01 2.926159724338399159e-74
5.235749999999993065e+01 4.647357776226355408e-74
5.257124999999993520e+01 5.989290423095659694e-74
5.278499999999991132e+01 6.462605285614791739e-74
5.299874999999991587e+01 5.578671041730327573e-74
5.321249999999992042e+01 2.968611168190252163e-74
5.342624999999992497e+01 -1.476233458936088838e-74
5.363999999999992951e+01 -7.467547593409808896e-74
5.385374999999993406e+01 -1.422177117249525623e-73
5.406749999999991019e+01 -2.044028879904487725e-73
5.428124999999991473e+01 -2.440567741004948559e-73
5.449499999999991928e+01 -2.421911895414586084e-73
5.470874999999992383e+01 -1.818034833556385734e-73
5.492249999999992838e+01 -5.277671102454734677e-74
5.513624999999993292e+01 1.428428322856535687e-73
5.534999999999990905e+01 3.863012666909115645e-73
5.556374999999991360e+01 6.397141417369895721e-73
5.577749999999991815e+01 8.472098517608347927e-73
5.599124999999992269e+01 9.408179962573479373e-73
5.620499999999992724e+01 8.516254975748080359e-73
5.641874999999993179e+01 5.256796803702317514e-73
5.663249999999990791e+01 -5.721911221613251424e-74
5.684624999999991246e+01 -8.651199987392480404e-73
5.705999999999991701e+01 -1.800417776342137561e-72
5.727374999999992156e+01 -2.696370198888963656e-72
5.748749999999992610e+01 -3.328428688443440503e-72
5.770124999999993065e+01 -3.443579394374566611e-72
5.791499999999990678e+01 -2.807922041204930862e-72
5.812874999999991132e+01 -1.268537664490535608e-72
5.834249999999991587e+01 1.179171338326167283e-72
5.855624999999992042e+01 4.332169600983820241e-72
5.876999999999992497e+01 7.745342906331675880e-72
5.898374999999992951e+01 1.073945501909427934e-71
5.919749999999990564e+01 1.246594814940153926e-71
5.941124999999991019e+01 1.203542663679756546e-71
5.962499999999991473e+01 8.704628855422997710e-72
5.983874999999991928e+01 2.101349203914601862e-72
6.005249999999992383e+01 -7.549577256455965364e-72
6.026624999999992838e+01 -1.925009384331513656e-71
6.047999999999990450e+01 -3.116095888071662771e-71
6.069374999999990905e+01 -4.069747259453743955e-71
6.090749999999991360e+01 -4.482781450883634244e-71
6.112124999999991815e+01 -4.058160630731820425e-71
6.133499999999992269e+01 -2.573205452228630593e-71
6.154874999999992724e+01 4.368322646366194985e-73
6.176249999999993179e+01 3.641697854127310602e-71
6.197624999999990791e+01 7.799340559103409400e-71
6.218999999999991246e+01 1.181798316007660733e-70
6.240374999999991701e+01 1.477348746028655170e-70
6.261749999999992156e+01 1.563507715205677588e-70
6.283124999999992610e+01 1.344922708495682674e-70
6.304499999999993065e+01 7.571531370947774464e-71
6.325874999999990678e+01 -2.086575564899740188e-71
6.347249999999991132e+01 -1.484368680765245448e-70
6.368624999999991587e+01 -2.912321615267858316e-70
6.389999999999992042e+01 -4.247328951225698312e-70
6.411374999999992497e+01 -5.177585274384492737e-70
6.432749999999992951e+01 -5.366399594913827371e-70
6.454124999999990564e+01 -4.512954870127840030e-70
6.475499999999991019e+01 -2.425831845236166270e-70
6.496874999999991473e+01 9.015170389826224805e-71
6.518249999999991928e+01 5.227886554119029989e-70
6.539624999999992383e+01 1.003048690449752284e-69
6.560999999999992838e+01 1.451582060761986366e-69
6.582374999999990450e+01 1.768682964963627130e-69
6.603749999999990905e+01 1.847039027492556923e-69
6.625124999999991360e+01 1.589892077071604304e-69
6.646499999999991815e+01 9.327971355129855908e-70
6.667874999999992269e+01 -1.339979095460990819e-70
6.689249999999992724e+01 -1.546449081049127895e-69
6.710624999999990337e+01 -3.155240836841139585e-69
6.731999999999990791e+01 -4.726098288813224186e-69
6.753374999999991246e+01 -5.955110652948827064e-69
6.774749999999991701e+01 -6.500618453681752493e-69
6.796124999999992156e+01 -6.030942758228182353e-69
6.817499999999992610e+01 -4.284597262723275151e-69
6.838874999999990223e+01 -1.136937519350349565e-69
6.860249999999990678e+01 3.335195389793412332e-69
6.881624999999991132e+01 8.801075327593876684e-69
6.902999999999991587e+01 1.464712223076974185e-68
6.924374999999992042e+01 1.998247701673213287e-68
6.945749999999992497e+01 2.368901233951116630e-68
6.967124999999990109e+01 2.452316637286692520e-68
6.988499999999990564e+01 2.127298713868961895e-68
7.009874999999991019e+01 1.296795847961161813e-68
7.031249999999991473e+01 -8.688495918968240672e-70
7.052624999999991928e+01 -1.994731876004005230e-68
7.073999999999992383e+01 -4.294954977335143638e-68
7.095374999999989996e+01 -6.733057837473278853e-68
7.116749999999990450e+01 -8.924355252922510678e-68
7.138124999999990905e+01 -1.036627155527860481e-67
7.159499999999991360e+01 -1.047787422672256595e-67
7.180874999999991815e+01 -8.672673944524958280e-68
7.202249999999992269e+01 -4.467120282504498090e-68
7.223624999999989882e+01 2.379014306536833818e-68
7.244999999999990337e+01 1.170307960830238832e-67
7.266374999999990791e+01 2.278448328156877233e-67
7.287749999999991246e+01 3.422922083329586079e-67
7.309124999999991701e+01 4.393852017533617595e-67
7.330499999999992156e+01 4.921012327103263040e-67
7.351874999999989768e+01 4.701548375526405255e-67
7.373249999999990223e+01 3.447814716171334619e-67
7.394624999999990678e+01 9.545637494735538349e-68
7.415999999999991132e+01 -2.820027777706795580e-67
7.437374999999991587e+01 -7.670786442955976310e-67
7.458749999999992042e+01 -1.307666010564113234e-66
7.480124999999992497e+01 -1.816854808018713198e-66
7.501499999999990109e+01 -2.175782553192235352e-66
7.522874999999990564e+01 -2.244691110563204086e-66
7.544249999999991019e+01 -1.883451262000935316e-66
7.565624999999991473e+01 -9.812662201669853309e-67
7.586999999999991928e+01 5.069138493289627123e-67
7.608374999999992383e+01 2.522315913767337354e-66
7.629749999999989996e+01 4.870225602867902323e-66
7.651124999999990450e+01 7.203410849494770452e-66
7.672499999999990905e+01 9.031330773403177368e-66
7.693874999999991360e+01 9.764022461337888306e-66
7.715249999999991815e+01 8.795662345289203418e-66
7.736624999999992269e+01 5.626176980741612885e-66
7.757999999999989882e+01 1.029212525704651893e-68
7.779374999999990337e+01 -7.886899821206184297e-66
7.800749999999990791e+01 -1.735864973959477842e-65
7.822124999999991246e+01 -2.708741954169140148e-65
7.843499999999991701e+01 -3.517741558878019641e-65
7.864874999999992156e+01 -3.932196829684875098e-65
7.886249999999989768e+01 -3.712295072982187010e-65
7.907624999999990223e+01 -2.655354917501873667e-65
7.928999999999990678e+01 -6.521779578768294003e-66
7.950374999999991132e+01 2.254550287739875997e-65
7.971749999999991587e+01 5.821298964595424671e-65
7.993124999999992042e+01 9.577963138823096365e-65
8.014499999999989654e+01 1.283938333794431824e-64
8.035874999999990109e+01 1.476546092115510469e-64
8.057249999999990564e+01 1.447518000931467625e-64
8.078624999999991019e+01 1.121051532070784287e-64
8.099999999999991473e+01 4.534385494833555214e-65
8.121374999999991928e+01 -5.465875261322200998e-65
8.142749999999989541e+01 -1.800923638826776149e-64
8.164124999999989996e+01 -3.153239524924901488e-64
8.185499999999990450e+01 -4.372791906777584122e-64
8.206874999999990905e+01 -5.174492765521051172e-64
8.228249999999991360e+01 -5.256712086402358247e-64
8.249624999999991815e+01 -4.355185843257287203e-64
8.270999999999989427e+01 -2.307593902610389383e-64
8.292374999999989882e+01 8.805714799160546902e-65
8.313749999999990337e+01 4.981539799530401527e-64
8.335124999999990791e+01 9.516693136049679995e-64
8.356499999999991246e+01 1.376782665312295382e-63
8.377874999999991701e+01 1.683862277929523465e-63
8.399249999999989313e+01 1.776998357038724473e-63
8.420624999999989768e+01 1.570332884051170041e-63
8.441999999999990223e+01 1.007472162459807801e-63
8.463374999999990678e+01 8.114930687974303435e-65
8.484749999999991132e+01 -1.150581728034116362e-63
8.506124999999991587e+01 -2.555744836687551439e-63
8.527499999999989200e+01 -3.931264189729800123e-63
8.548874999999989654e+01 -5.019910263971892499e-63
8.570249999999990109e+01 -5.542093694066528887e-63
8.591624999999990564e+01 -5.240575146669117606e-63
8.612999999999991019e+01 -3.933170868897172487e-63
8.634374999999991473e+01 -1.565721648448780968e-63
8.655749999999989086e+01 1.744434832126037880e-63
8.677124999999989541e+01 5.684887139910879080e-63
8.698499999999989996e+01 9.753643585399538070e-63
8.719874999999990450e+01 1.329957449785201500e-62
8.741249999999990905e+01 1.559848009020351598e-62
8.762624999999991360e+01 1.595895707735446006e-62
8.783999999999991815e+01 1.384544991767132081e-62
8.805374999999989427e+01 9.000117048479171912e-63
8.826749999999989882e+01 1.541816347952763727e-63
8.848124999999990337e+01 -7.979191935004629526e-63
8.869499999999990791e+01 -1.858764464582832071e-62
8.890874999999991246e+01 -2.895886035949740431e-62
8.912249999999991701e+01 -3.755979523670151847e-62
8.933624999999989313e+01 -4.283903498506934443e-62
8.954999999999989768e+01 -4.343806139923066361e-62
8.976374999999990223e+01 -3.838961118538236260e-62
8.997749999999990678e+01 -2.726945553003561031e-62
9.019124999999991132e+01 -1.027666467721109416e-62
9.040499999999991587e+01 1.176630758751241546e-62
9.061874999999989200e+01 3.748151328352419973e-62
9.083249999999989654e+01 6.503875684005077127e-62
9.104624999999990109e+01 9.224810453473990608e-62
9.125999999999990564e+01 1.165955629017207610e-61
9.147374999999991019e+01 1.351941158024337811e-61
9.168749999999991473e+01 1.446599477556342521e-61
9.190124999999989086e+01 1.409762995065718605e-61
9.211499999999989541e+01 1.194642954005646787e-61
9.232874999999989996e+01 7.502468604326457005e-62
9.254249999999990450e+01 2.826551778819367234e-63
9.275624999999990905e+01 -1.004212086282288666e-61
9.296999999999991360e+01 -2.345862282962778640e-61
9.318374999999988972e+01 -3.937619647840119770e-61
9.339749999999989427e+01 -5.638217050771549173e-61
9.361124999999989882e+01 -7.204911336466253522e-61
9.382499999999990337e+01 -8.287537441671681948e-61
9.403874999999990791e+01 -8.444907094592082345e-61
9.425249999999991246e+01 -7.191569852335717369e-61
9.446624999999988859e+01 -4.079486967826240301e-61
9.467999999999989313e+01 1.187019167274691515e-61
9.489374999999989768e+01 8.613293019734585758e-61
9.510749999999990223e+01 1.777366383819516616e-60
9.532124999999990678e+01 2.769814874766382563e-60
9.553499999999991132e+01 3.682379311128620469e-60
9.574874999999988745e+01 4.304974306963117006e-60
9.596249999999989200e+01 4.392912014792120883e-60
9.617624999999989654e+01 3.701507263779029834e-60
9.638999999999990109e+01 2.035263817661482609e-60
9.660374999999990564e+01 -6.926073498791300916e-61
9.681749999999991019e+01 -4.398430120312765357e-60
9.703124999999988631e+01 -8.775782443572360273e-60
9.724499999999989086e+01 -1.326697556202062622e-59
9.745874999999989541e+01 -1.707316375497928911e-59
9.767249999999989996e+01 -1.921572788510070312e-59
9.788624999999990450e+01 -1.865598293545926029e-59
9.809999999999990905e+01 -1.447124560649341944e-59
9.831374999999988518e+01 -6.073481542974441123e-60
9.852749999999988972e+01 6.556475976635796197e-60
9.874124999999989427e+01 2.265864535590666608e-59
9.895499999999989882e+01 4.055613858560645512e-59
9.916874999999990337e+01 5.764125245526857742e-59
9.938249999999990791e+01 7.053053785370293067e-59
9.959624999999988404e+01 7.541713425069932235e-59
9.980999999999988859e+01 6.862098089535987779e-59
1.000237499999998931e+02 4.730082900262526326e-59
1.002374999999998977e+02 1.025037195274825041e-59
1.004512499999999022e+02 -4.133945886861397121e-59
1.006649999999999068e+02 -1.033010390970351919e-58
1.008787499999998829e+02 -1.682557943201908837e-58
1.010924999999998875e+02 -2.258754514789713362e-58
1.013062499999998920e+02 -2.637464121530000110e-58
1.015199999999998965e+02 -2.688703376743907686e-58
1.017337499999999011e+02 -2.297319132167596899e-58
1.019474999999999056e+02 -1.387453505029399043e-58
1.021612499999999102e+02 5.229342715392608438e-60
1.023749999999998863e+02 1.947102993149157924e-58
1.025887499999998909e+02 4.122267173864342924e-58
1.028024999999998954e+02 6.302249432027380781e-58
1.030162499999999000e+02 8.126280597957722007e-58
1.032299999999999045e+02 9.182599222507113474e-58
1.034437499999999091e+02 9.060959083975173042e-58
1.036574999999998852e+02 7.419955548593892264e-58
1.038712499999998897e+02 4.062418902763443586e-58
1.040849999999998943e+02 -9.909443456816182025e-59
1.042987499999998988e+02 -7.441775323432681497e-58
1.045124999999999034e+02 -1.468125198928558681e-57
1.047262499999999079e+02 -2.179657428563899639e-57
1.049399999999998840e+02 -2.762626761461653944e-57
1.051537499999998886e+02 -3.086893693839109394e-57
1.053674999999998931e+02 -3.024337515099866092e-57
1.055812499999998977e+02 -2.468990602592726953e-57
1.057949999999999022e+02 -1.359434454593808875e-57
1.060087499999999068e+02 2.991978614018400821e-58
1.062224999999998829e+02 2.416889849349286020e-57
1.064362499999998875e+02 4.807690477499946804e-57
1.066499999999998920e+02 7.189493458657405876e-57
1.068637499999998965e+02 9.197660618376822402e-57
1.070774999999999011e+02 1.041444444443389790e-56
1.072912499999999056e+02 1.041458060252710003e-56
1.075049999999998818e+02 8.825361210213493119e-57
1.077187499999998863e+02 5.397075320152765155e-57
1.079324999999998909e+02 7.709489562776472506e-59
1.081462499999998954e+02 -6.921651113875595312e-57
1.083599999999999000e+02 -1.506920008222172805e-56
1.085737499999999045e+02 -2.349677349269952644e-56
1.087874999999998806e+02 -3.101741753180573429e-56
1.090012499999998852e+02 -3.620006629420559043e-56
1.092149999999998897e+02 -3.750411002189621799e-56
1.094287499999998943e+02 -3.347516042343817240e-56
1.096424999999998988e+02 -2.299382224170652559e-56
1.098562499999999034e+02 -5.558282438541163997e-57
1.100699999999998795e+02 1.843068694053689420e-56
1.102837499999998840e+02 4.742565074652907969e-56
1.104974999999998886e+02 7.858225054506496867e-56
1.107112499999998931e+02 1.077602487141579420e-55
1.109249999999998977e+02 1.297302043574243808e-55
1.111387499999999022e+02 1.386266303534417347e-55
1.113524999999998784e+02 1.286629217821682284e-55
1.115662499999998829e+02 9.508542074609954952e-56
1.117799999999998875e+02 3.529554399089100428e-56
1.119937499999998920e+02 -4.998554656559871774e-56
1.122074999999998965e+02 -1.556883402204818853e-55
1.124212499999999011e+02 -2.717228293428847307e-55
1.126349999999998772e+02 -3.829019981567687631e-55
1.128487499999998818e+02 -4.696840757539619782e-55
1.130624999999998863e+02 -5.098958753996905127e-55
1.132762499999998909e+02 -4.814886021716468116e-55
1.134899999999998954e+02 -3.662182128136820029e-55
1.137037499999999000e+02 -1.539459301431891789e-55
1.139174999999998761e+02 1.529573105467014492e-55
1.141312499999998806e+02 5.358136494131807277e-55
1.143449999999998852e+02 9.572972503047699603e-55
1.145587499999998897e+02 1.361435112572580873e-54
1.147724999999998943e+02 1.676730716075704561e-54
1.149862499999998988e+02 1.822916376418741878e-54
1.151999999999998749e+02 1.721386607515325525e-54
1.154137499999998795e+02 1.308753522326412785e-54
1.156274999999998840e+02 5.522516972082907097e-55
1.158412499999998886e+02 -5.350049389349481418e-55
1.160549999999998931e+02 -1.881525773181136243e-54
1.162687499999998977e+02 -3.350679699232297745e-54
1.164824999999999022e+02 -4.742608163547805025e-54
1.166962499999998784e+02 -5.807217915103728417e-54
1.169099999999998829e+02 -6.269541281090899092e-54
1.171237499999998875e+02 -5.867076593420713017e-54
1.173374999999998920e+02 -4.396600540099087383e-54
1.175512499999998965e+02 -1.765602310871837820e-54
1.177649999999999011e+02 1.958745015135787942e-54
1.179787499999998772e+02 6.511880567130101109e-54
1.181924999999998818e+02 1.141499128125361466e-53
1.184062499999998863e+02 1.598796771067633492e-53
1.186199999999998909e+02 1.939891543731199303e-53
1.188337499999998954e+02 2.075295325580791761e-53
1.190474999999999000e+02 1.921742231948833343e-53
1.192612499999998761e+02 1.417388419803190727e-53
1.194749999999998806e+02 5.380179293256822493e-54
1.196887499999998852e+02 -6.880596684024093143e-54
1.199024999999998897e+02 -2.169183158819057177e-53
1.201162499999998943e+02 -3.746479773045739685e-53
1.203299999999998988e+02 -5.199571145530878793e-53
1.205437499999998749e+02 -6.263653796352806579e-53
1.207574999999998795e+02 -6.658466266728385513e-53
1.209712499999998840e+02 -6.127920930763522502e-53
1.211849999999998886e+02 -4.487161692918023861e-53
1.213987499999998931e+02 -1.671749360123267952e-53
1.216124999999998977e+02 2.218115583654209906e-53
1.218262499999998738e+02 6.886597948285157834e-53
1.220399999999998784e+02 1.183293732647972262e-52
1.222537499999998829e+02 1.637129886128804154e-52
1.224674999999998875e+02 1.968473828425756340e-52
1.226812499999998920e+02 2.091436647341709536e-52
1.228949999999998965e+02 1.927970246121811846e-52
1.231087499999998727e+02 1.422035244887646903e-52
1.233224999999998772e+02 5.543230500399148616e-53
1.235362499999998818e+02 -6.445583040590170345e-53
1.237499999999998863e+02 -2.084858673780584053e-52
1.239637499999998909e+02 -3.614903283251356727e-52
1.241774999999998954e+02 -5.026937332191455525e-52
1.243912499999998715e+02 -6.073076294582133976e-52
1.246049999999998761e+02 -6.491724122871292029e-52
1.248187499999998806e+02 -6.043350367517504516e-52
1.250324999999998852e+02 -4.552813880410926150e-52
1.252462499999998897e+02 -1.953674676641272187e-52
1.254599999999998943e+02 1.671607032275051624e-52
1.256737499999998704e+02 6.062741930474248063e-52
1.258874999999998749e+02 1.077139216881871288e-51
1.261012499999998795e+02 1.517635561063756450e-51
1.263149999999998840e+02 1.852890395027168507e-51
1.265287499999998886e+02 2.002983913146653070e-51
1.267424999999998931e+02 1.893553265058111308e-51
1.269562499999998693e+02 1.468512574070249869e-51