2.024999999999579359e-01 1.194586737389766526e-106
4.162499999999482725e-01 1.547155202785752459e-106
6.299999999999528200e-01 1.577608595418141264e-106
8.437499999999573674e-01 9.642651196019408151e-107
1.057499999999947704e+00 -6.466773819369850768e-107
1.271249999999952252e+00 -3.521525440781162926e-106
1.484999999999956799e+00 -7.644424711829974314e-106
1.698749999999947136e+00 -1.245983659531525522e-105
1.912499999999951683e+00 -1.660194901935523609e-105
2.126249999999956231e+00 -1.771200427607000343e-105
2.339999999999946567e+00 -1.250032080695302476e-105
2.553749999999951115e+00 2.748809807326349622e-106
2.767499999999955662e+00 3.103424243308099316e-105
2.981249999999945999e+00 7.274821622453894647e-105
3.194999999999950546e+00 1.231391144696569110e-104
3.408749999999955094e+00 1.695801100723775702e-104
3.622499999999945430e+00 1.895816851256584872e-104
3.836249999999949978e+00 1.510200066437022731e-104
4.049999999999954525e+00 1.646385855458441783e-105
4.263749999999944862e+00 -2.465036145435855757e-104
4.477499999999949409e+00 -6.478085439502510737e-104
4.691249999999953957e+00 -1.150940636045528702e-103
4.904999999999944293e+00 -1.646403317007797326e-103
5.118749999999948841e+00 -1.930829529338709896e-103
5.332499999999953388e+00 -1.704971987859496070e-103
5.546249999999943725e+00 -6.077577990984368968e-104
5.759999999999948272e+00 1.695766789907307003e-103
5.973749999999952820e+00 5.360587415650072835e-103
6.187499999999943157e+00 1.014541936946976181e-102
6.401249999999947704e+00 1.516466730034656502e-102
6.614999999999952252e+00 1.867778879234110466e-102
6.828749999999942588e+00 1.802929908716973560e-102
7.042499999999947136e+00 9.890149960821559894e-103
7.256249999999951683e+00 -9.037819873259559051e-103
7.469999999999942020e+00 -4.073450617908920038e-102
7.683749999999946567e+00 -8.399380438170458964e-102
7.897499999999951115e+00 -1.322010419159532188e-101
8.111249999999941451e+00 -1.713026723622971347e-101
8.324999999999945999e+00 -1.788947144133996815e-101
8.538749999999950546e+00 -1.256977671491585982e-101
8.752499999999940883e+00 1.916960098252859127e-102
8.966249999999945430e+00 2.779748944590061067e-101
9.179999999999949978e+00 6.489810788054272924e-101
9.393749999999940314e+00 1.087385668159253821e-100
9.607499999999944862e+00 1.486672116467037844e-100
9.821249999999949409e+00 1.667595806278621705e-100
1.003499999999993975e+01 1.385017497137999267e-100
1.024874999999994429e+01 3.644199522324845153e-101
1.046249999999994884e+01 -1.621480158913296156e-100
1.067624999999993918e+01 -4.631968178502056516e-100
1.088999999999994373e+01 -8.402209636348115226e-100
1.110374999999994827e+01 -1.218033773891138723e-99
1.131749999999993861e+01 -1.461125838208035803e-99
1.153124999999994316e+01 -1.374580968740331406e-99
1.174499999999994770e+01 -7.270328605902369533e-100
1.195874999999993804e+01 6.953252169646958109e-100
1.217249999999994259e+01 2.998761813390700346e-99
1.238624999999994714e+01 6.060150765908982156e-99
1.259999999999993747e+01 9.391800970377136523e-99
1.281374999999994202e+01 1.203051467276212709e-98
1.302749999999994657e+01 1.250861489950529248e-98
1.324124999999995111e+01 8.979906369512463837e-99
1.345499999999994145e+01 -4.253239809480444794e-100
1.366874999999994600e+01 -1.696609939564013794e-98
1.388249999999995055e+01 -4.038663862943101616e-98
1.409624999999994088e+01 -6.785247352321479752e-98
1.430999999999994543e+01 -9.297494666311422810e-98
1.452374999999994998e+01 -1.053272188926219455e-97
1.473749999999994031e+01 -9.098591976237198869e-98
1.495124999999994486e+01 -3.467682052360536945e-98
1.516499999999994941e+01 7.601853733111620699e-98
1.537874999999993975e+01 2.443052354019885549e-97
1.559249999999994429e+01 4.562426740173780442e-97
1.580624999999994884e+01 6.727705794869937697e-97
1.601999999999993918e+01 8.243594055407085820e-97
1.623374999999994373e+01 8.120047162831293417e-97
1.644749999999994827e+01 5.188464658710605234e-97
1.666124999999993861e+01 -1.637785924121342678e-97
1.687499999999994316e+01 -1.294130492246418092e-96
1.708874999999994770e+01 -2.824139134617881912e-96
1.730249999999993804e+01 -4.538494130069007569e-96
1.751624999999994259e+01 -6.005366873585692088e-96
1.772999999999994714e+01 -6.563331521758369564e-96
1.794374999999993747e+01 -5.374498954623607615e-96
1.815749999999994202e+01 -1.573273089731586595e-96
1.837124999999994657e+01 5.470541846768749871e-96
1.858499999999993690e+01 1.577981710976970432e-95
1.879874999999994145e+01 2.833421949233108560e-95
1.901249999999994600e+01 4.066721683359797128e-95
1.922624999999993634e+01 4.864926169198533550e-95
1.943999999999994088e+01 4.665614815195821933e-95
1.965374999999994543e+01 2.833438405772858885e-95
1.986749999999993577e+01 -1.187109099549153090e-95
2.008124999999994031e+01 -7.639271217289715654e-95
2.029499999999994486e+01 -1.616166105671746434e-94
2.050874999999993520e+01 -2.548809788864927336e-94
2.072249999999993975e+01 -3.322953366333324703e-94
2.093624999999994429e+01 -3.586251660987166232e-94
2.114999999999993463e+01 -2.906697586252829149e-94
2.136374999999993918e+01 -8.541662893951076094e-95
2.157749999999994373e+01 2.863878782636885541e-94
2.179124999999993406e+01 8.218821813264491232e-94
2.200499999999993861e+01 1.465487789349536628e-93
2.221874999999994316e+01 2.090975971087592277e-93
2.243249999999993349e+01 2.493515807909598981e-93
2.264624999999993804e+01 2.400715223286297557e-93
2.285999999999994259e+01 1.511685331575416869e-93
2.307374999999993292e+01 -4.295912094898750478e-94
2.328749999999993747e+01 -3.526757459778466938e-93
2.350124999999994202e+01 -7.600155264174267086e-93
2.371499999999993236e+01 -1.205719934605141024e-92
2.392874999999993690e+01 -1.580420065923451431e-92
2.414249999999994145e+01 -1.725282103907399445e-92
2.435624999999993179e+01 -1.447953100416199555e-92
2.456999999999993634e+01 -5.587298469415513791e-93
2.478374999999994088e+01 1.071094579310263247e-92
2.499749999999993122e+01 3.432160990929984246e-92
2.521124999999993577e+01 6.292448768869021962e-92
2.542499999999994031e+01 9.125560399630030187e-92
2.563874999999993065e+01 1.108112298098433594e-91
2.585249999999993520e+01 1.103214909676227299e-91
2.606624999999993975e+01 7.732952700457981073e-92
2.627999999999994429e+01 1.093237484508216811e-93
2.649374999999993463e+01 -1.232281212942866919e-91
2.670749999999993918e+01 -2.895379795867964563e-91
2.692124999999994373e+01 -4.758628608538173188e-91
2.713499999999993406e+01 -6.409961252275117451e-91
2.734874999999993861e+01 -7.246456105332721228e-91
2.756249999999994316e+01 -6.531425531562840796e-91
2.777624999999993349e+01 -3.523951205930602362e-91
2.798999999999993804e+01 2.313067568621813380e-91
2.820374999999994259e+01 1.103908937083722289e-90
2.841749999999993292e+01 2.193520143275695938e-90
2.863124999999993747e+01 3.324561793150140655e-90
2.884499999999994202e+01 4.205871435685662496e-90
2.905874999999993236e+01 4.444184633991831472e-90
2.927249999999993690e+01 3.593875039077601844e-90
2.948624999999994145e+01 1.249935698401445851e-90
2.969999999999993179e+01 -2.816858244582893677e-90
2.991374999999993634e+01 -8.495931809105895602e-90
3.012749999999994088e+01 -1.517279763811100854e-89
3.034124999999993122e+01 -2.160969444813123166e-89
3.055499999999993577e+01 -2.592848950565546219e-89
3.076874999999994031e+01 -2.575727005841765843e-89
3.098249999999993065e+01 -1.859139314728759201e-89
3.119624999999993520e+01 -2.389597500318581004e-90
3.140999999999993975e+01 2.362615504484962288e-89
3.162374999999993008e+01 5.806970018532226241e-89
3.183749999999993463e+01 9.657278264135493062e-89
3.205124999999993918e+01 1.313101226828975383e-88
3.226499999999992951e+01 1.511737236016638846e-88
3.247874999999993406e+01 1.428926295250354979e-88
3.269249999999993861e+01 9.330165517570607176e-89
3.290624999999992895e+01 -7.230094807540603248e-90
3.311999999999993349e+01 -1.604926032271660935e-88
3.333374999999993804e+01 -3.558978181742137870e-88
3.354749999999992838e+01 -5.667407095301463668e-88
3.376124999999993292e+01 -7.485933254522448633e-88
3.397499999999993747e+01 -8.412844387118865193e-88
3.418874999999992781e+01 -7.757285326309697619e-88
3.440249999999993236e+01 -4.862777195325063962e-88
3.461624999999993690e+01 7.175756293835673984e-89
3.482999999999992724e+01 9.011813098900979220e-88
3.504374999999993179e+01 1.941952029626079485e-87
3.525749999999993634e+01 3.055076994123756468e-87
3.547124999999992667e+01 4.017258428803520118e-87
3.568499999999993122e+01 4.532254218857030859e-87
3.589874999999993577e+01 4.263644999932774467e-87
3.611249999999992610e+01 2.890876555646430881e-87
3.632624999999993065e+01 1.861443499450906405e-88
3.653999999999993520e+01 -3.895648358946957322e-87
3.675374999999992554e+01 -9.127165440726671680e-87
3.696749999999993008e+01 -1.493706741269746288e-86
3.718124999999993463e+01 -2.037699039845249888e-86
3.739499999999992497e+01 -2.414678471148945597e-86
3.760874999999992951e+01 -2.469339368901051789e-86
3.782249999999993406e+01 -2.039108079637199120e-86
3.803624999999993861e+01 -9.800857025767766867e-87
3.824999999999994316e+01 8.003297095125789150e-87
3.846374999999991928e+01 3.306267429806041232e-86
3.867749999999992383e+01 6.414433380886071854e-86
3.889124999999992838e+01 9.836678947353748522e-86
3.910499999999993292e+01 1.308811800251481939e-85
3.931874999999993747e+01 1.546637634337507214e-85
3.953249999999994202e+01 1.605063549357143156e-85
3.974624999999991815e+01 1.373420627746947437e-85
3.995999999999992269e+01 7.311183857074949805e-86
4.017374999999992724e+01 -4.355279350469703209e-86
4.038749999999993179e+01 -2.205181301782008460e-85
4.060124999999993634e+01 -4.579448124529696126e-85
4.081499999999994088e+01 -7.426362889179244502e-85
4.102874999999991701e+01 -1.041317758034993924e-84
4.124249999999992156e+01 -1.293931618183167242e-84
4.145624999999992610e+01 -1.408996485145403226e-84
4.166999999999993065e+01 -1.264163952806713781e-84
4.188374999999993520e+01 -7.160453852127011229e-85
4.209749999999993975e+01 3.762702720342399988e-85
4.231124999999991587e+01 2.110407672887775269e-84
4.252499999999992042e+01 4.481625604161877379e-84
4.273874999999992497e+01 7.309414612784543853e-84
4.295249999999992951e+01 1.016108713061826542e-83
4.316624999999993406e+01 1.229293391806804777e-83
4.337999999999993861e+01 1.263913318972686553e-83
4.359374999999991473e+01 9.885839613942447002e-84
4.380749999999991928e+01 2.668865739040492507e-84
4.402124999999992383e+01 -1.007653373911238990e-83
4.423499999999992838e+01 -2.861052304913065618e-83
4.444874999999993292e+01 -5.176839729156016026e-83
4.466249999999993747e+01 -7.632629055720123120e-83
4.487624999999991360e+01 -9.652605020067824272e-83
4.508999999999991815e+01 -1.040016766336045995e-82
4.530374999999992269e+01 -8.839405723207190907e-83
4.551749999999992724e+01 -3.893103089375998331e-83
4.573124999999993179e+01 5.284599868400156254e-83
4.594499999999993634e+01 1.892372690669972821e-82
4.615874999999991246e+01 3.617857575224594461e-82
4.637249999999991701e+01 5.467339651459213698e-82
4.658624999999992156e+01 7.018442087869172585e-82
4.679999999999992610e+01 7.663319272579390688e-82
4.701374999999993065e+01 6.658867178035937647e-82
4.722749999999993520e+01 3.245667493487434525e-82
4.744124999999993975e+01 -3.154537106408501666e-82
4.765499999999991587e+01 -1.266879733401825719e-81
4.786874999999992042e+01 -2.466006386214881148e-81
4.808249999999992497e+01 -3.743118584985875795e-81
4.829624999999992951e+01 -4.803726542349760936e-81
4.850999999999993406e+01 -5.232350384268054219e-81
4.872374999999993861e+01 -4.531456294121886471e-81
4.893749999999991473e+01 -2.206107438206512998e-81
4.915124999999991928e+01 2.101258792531893618e-81
4.936499999999992383e+01 8.432534678297141347e-81
4.957874999999992838e+01 1.631448451569294601e-80
4.979249999999993292e+01 2.457945076234887164e-80
5.000624999999993747e+01 3.126645668815238141e-80
5.021999999999991360e+01 3.367660783369931658e-80
5.043374999999991815e+01 2.865836211488365021e-80
5.064749999999992269e+01 1.318047657427961787e-80
5.086124999999992724e+01 -1.479320583996082897e-80
5.107499999999993179e+01 -5.518566162183722422e-80
5.128874999999993634e+01 -1.046027041436000304e-79
5.150249999999991246e+01 -1.553140563343481116e-79
5.171624999999991701e+01 -1.947964881993089579e-79
5.192999999999992156e+01 -2.062819782255210020e-79
5.214374999999992610e+01 -1.707392599245409025e-79
5.235749999999993065e+01 -7.058023625546897798e-80
5.257124999999993520e+01 1.049089998596896335e-79
5.278499999999991132e+01 3.528689944496108055e-79
5.299874999999991587e+01 6.499478559072867343e-79
5.321249999999992042e+01 9.468568574109274017e-79
5.342624999999992497e+01 1.166655489594697004e-78
5.363999999999992951e+01 1.209298712973137430e-78
5.385374999999993406e+01 9.647449351943661953e-79
5.406749999999991019e+01 3.359551127070609834e-79
5.428124999999991473e+01 -7.287388121292081122e-79
5.449499999999991928e+01 -2.197153863924084250e-78
5.470874999999992383e+01 -3.915308726162768522e-78
5.492249999999992838e+01 -5.580159409713297475e-78
5.513624999999993292e+01 -6.735940936181370549e-78
5.534999999999990905e+01 -6.807954244809200168e-78
5.556374999999991360e+01 -5.185450312275682635e-78
5.577749999999991815e+01 -1.358863015087592430e-78
5.599124999999992269e+01 4.894580278731295603e-78
5.620499999999992724e+01 1.329856572599378807e-77
5.641874999999993179e+01 2.287897552540749749e-77
5.663249999999990791e+01 3.183711368267113987e-77
5.684624999999991246e+01 3.756597082503472060e-77
5.705999999999991701e+01 3.688181311848643796e-77
5.727374999999992156e+01 2.652659279212581150e-77
5.748749999999992610e+01 3.956714301922536373e-78
5.770124999999993065e+01 -3.163141064920071204e-77
5.791499999999990678e+01 -7.817533808528940206e-77
5.812874999999991132e+01 -1.297539273942488616e-76
5.834249999999991587e+01 -1.760507756776171144e-76
5.855624999999992042e+01 -2.026495180421544410e-76
5.876999999999992497e+01 -1.925216232856563247e-76
5.898374999999992951e+01 -1.289523926311491081e-76
5.919749999999990564e+01 8.632627556171966299e-80
5.941124999999991019e+01 1.964705535284444191e-76
5.962499999999991473e+01 4.461795208015844627e-76
5.983874999999991928e+01 7.145766933587009160e-76
6.005249999999992383e+01 9.444344513253037248e-76
6.026624999999992838e+01 1.058611302832437677e-75
6.047999999999990450e+01 9.690969736289890867e-76
6.069374999999990905e+01 5.934155475565894011e-76
6.090749999999991360e+01 -1.219674362340751755e-76
6.112124999999991815e+01 -1.173526637373446500e-75
6.133499999999992269e+01 -2.472485594656419544e-75
6.154874999999992724e+01 -3.823558599357181333e-75
6.176249999999993179e+01 -4.919438235006343530e-75
6.197624999999990791e+01 -5.360349895730232082e-75
6.218999999999991246e+01 -4.706427424000560465e-75
6.240374999999991701e+01 -2.566374195609673189e-75
6.261749999999992156e+01 1.281425034441379034e-75
6.283124999999992610e+01 6.749160115750350325e-75
6.304499999999993065e+01 1.330655003851269250e-74
6.325874999999990678e+01 1.989075606321831346e-74
6.347249999999991132e+01 2.490285156015028703e-74
6.368624999999991587e+01 2.633459722927947918e-74
6.389999999999992042e+01 2.205865749610082978e-74
6.411374999999992497e+01 1.029136262290677501e-74
6.432749999999992951e+01 -9.800952117306545736e-75
6.454124999999990564e+01 -3.743056091482754558e-74
6.475499999999991019e+01 -6.958485595546307910e-74
6.496874999999991473e+01 -1.006718804642261069e-73
6.518249999999991928e+01 -1.226230902330169364e-73
6.539624999999992383e+01 -1.256506109738553360e-73
6.560999999999992838e+01 -9.979163031070476496e-74
6.582374999999990450e+01 -3.724422236523550423e-74
6.603749999999990905e+01 6.469232611672102006e-74
6.625124999999991360e+01 2.004970803452350398e-73
6.646499999999991815e+01 3.537990429880992494e-73
6.667874999999992269e+01 4.961152782950253826e-73
6.689249999999992724e+01 5.879161113460444534e-73
6.710624999999990337e+01 5.828712617927548791e-73
6.731999999999990791e+01 4.357659067496210147e-73
6.753374999999991246e+01 1.139190625944379937e-73
6.774749999999991701e+01 -3.889900584333885470e-73
6.796124999999992156e+01 -1.038881486284388830e-72
6.817499999999992610e+01 -1.750300490004831313e-72
6.838874999999990223e+01 -2.382596597707364593e-72
6.860249999999990678e+01 -2.747540036459089847e-72
6.881624999999991132e+01 -2.631918342691637818e-72
6.902999999999991587e+01 -1.836715331693816819e-72
6.924374999999992042e+01 -2.312445594074025801e-73
6.945749999999992497e+01 2.183732011863142750e-72
6.967124999999990109e+01 5.214794282015852687e-72
6.988499999999990564e+01 8.432053861055390064e-72
7.009874999999991019e+01 1.116124953735853000e-71
7.031249999999991473e+01 1.253023941629910746e-71
7.052624999999991928e+01 1.158394732255102017e-71
7.073999999999992383e+01 7.472002725489603090e-72
7.095374999999989996e+01 -3.020111799684096254e-73
7.116749999999990450e+01 -1.160048080187152954e-71
7.138124999999990905e+01 -2.539300594529320838e-71
7.159499999999991360e+01 -3.958984329563868408e-71
7.180874999999991815e+01 -5.104887998724225080e-71
7.202249999999992269e+01 -5.583341877505215702e-71
7.223624999999989882e+01 -4.977392066166026513e-71
7.244999999999990337e+01 -2.933928539286355958e-71
7.266374999999990791e+01 7.247047935868921598e-72
7.287749999999991246e+01 5.879755180640247559e-71
7.309124999999991701e+01 1.200989115065487556e-70
7.330499999999992156e+01 1.813129917932079528e-70
7.351874999999989768e+01 2.281878123007846322e-70
7.373249999999990223e+01 2.433915606393911215e-70
7.394624999999990678e+01 2.091598960161535114e-70
7.415999999999991132e+01 1.112251163693736141e-70
7.437374999999991587e+01 -5.631672041566075598e-71
7.458749999999992042e+01 -2.859150263776481045e-70
7.480124999999992497e+01 -5.523320313452108872e-70
7.501499999999990109e+01 -8.106277245258802481e-70
7.522874999999990564e+01 -9.978059489323478034e-70
7.544249999999991019e+01 -1.039351509864582806e-69
7.565624999999991473e+01 -8.612963453828568724e-70
7.586999999999991928e+01 -4.074553530470256955e-70
7.608374999999992383e+01 3.398761176899861944e-70
7.629749999999989996e+01 1.339011499728464370e-69
7.651124999999990450e+01 2.472457196676678207e-69
7.672499999999990905e+01 3.540708136078930038e-69
7.693874999999991360e+01 4.272101173832960399e-69
7.715249999999991815e+01 4.353417591824813702e-69
7.736624999999992269e+01 3.483199359969357889e-69
7.757999999999989882e+01 1.445398525544264511e-69
7.779374999999990337e+01 -1.804681460047620112e-69
7.800749999999990791e+01 -6.056435823934639073e-69
7.822124999999991246e+01 -1.078192924454216521e-68
7.843499999999991701e+01 -1.511922609123797054e-68
7.864874999999992156e+01 -1.792418846785795631e-68
7.886249999999989768e+01 -1.790813318898680431e-68
7.907624999999990223e+01 -1.386666282227897181e-68
7.928999999999990678e+01 -4.986615773429218969e-69
7.950374999999991132e+01 8.805064249006149746e-69
7.971749999999991587e+01 2.651142173821268632e-68
7.993124999999992042e+01 4.583671513843690913e-68
8.014499999999989654e+01 6.315261631594765177e-68
8.035874999999990109e+01 7.374865210737932858e-68
8.057249999999990564e+01 7.242962239149090808e-68
8.078624999999991019e+01 5.447110006931183062e-68
8.099999999999991473e+01 1.686860864875514599e-68
8.121374999999991928e+01 -4.027624136843077089e-68
8.142749999999989541e+01 -1.124847461400353441e-67
8.164124999999989996e+01 -1.900756796522211225e-67
8.185499999999990450e+01 -2.581527703754600828e-67
8.206874999999990905e+01 -2.977426296877852352e-67
8.228249999999991360e+01 -2.883036679934857910e-67
8.249624999999991815e+01 -2.116128062240279482e-67
8.270999999999989427e+01 -5.673452531975114589e-68
8.292374999999989882e+01 1.745828463245005893e-67
8.313749999999990337e+01 4.630992653726208290e-67
8.335124999999990791e+01 7.691612609872665625e-67
8.356499999999991246e+01 1.033073786254945929e-66
8.377874999999991701e+01 1.180016848715884616e-66
8.399249999999989313e+01 1.130263910577175640e-66
8.420624999999989768e+01 8.146003469939765878e-67
8.441999999999990223e+01 1.936603292542503336e-67
8.463374999999990678e+01 -7.214695784823580808e-67
8.484749999999991132e+01 -1.851367291854393347e-66
8.506124999999991587e+01 -3.038094530932219908e-66
8.527499999999989200e+01 -4.048002470688142660e-66
8.548874999999989654e+01 -4.592077196244121778e-66
8.570249999999990109e+01 -4.366368529953735803e-66
8.591624999999990564e+01 -3.111691334333389629e-66
8.612999999999991019e+01 -6.872918126502077996e-67
8.634374999999991473e+01 2.851937482744093580e-66
8.655749999999989086e+01 7.189962077653053509e-66
8.677124999999989541e+01 1.171454145314459381e-65
8.698499999999989996e+01 1.553205232599172954e-65
8.719874999999990450e+01 1.754849215597731518e-65
8.741249999999990905e+01 1.662505718201116122e-65
8.762624999999991360e+01 1.180393042091897766e-65
8.783999999999991815e+01 2.583170671544504071e-66
8.805374999999989427e+01 -1.079906834038912460e-65
8.826749999999989882e+01 -2.712806827031100087e-65
8.848124999999990337e+01 -4.409263375561025384e-65
8.869499999999990791e+01 -5.835205413031039594e-65
8.890874999999991246e+01 -6.584733502529466369e-65
8.912249999999991701e+01 -6.238402576683468283e-65
8.933624999999989313e+01 -4.446666712893922960e-65
8.954999999999989768e+01 -1.030391332502223773e-65
8.976374999999990223e+01 3.916344398410279746e-65
8.997749999999990678e+01 9.942001258066434600e-65
9.019124999999991132e+01 1.619667413183629883e-64
9.040499999999991587e+01 2.145948644228296271e-64
9.061874999999989200e+01 2.425421542191232065e-64
9.083249999999989654e+01 2.306196891212952338e-64
9.104624999999990109e+01 1.662262845447779760e-64
9.125999999999990564e+01 4.295053316744251308e-65
9.147374999999991019e+01 -1.357742981132376705e-64
9.168749999999991473e+01 -3.537065946024133969e-64
9.190124999999989086e+01 -5.803987081857954788e-64
9.211499999999989541e+01 -7.722358029949045387e-64
9.232874999999989996e+01 -8.765941284781484856e-64
9.254249999999990450e+01 -8.394027637788345448e-64
9.275624999999990905e+01 -6.157891266599940047e-64
9.296999999999991360e+01 -1.827312929183396930e-64
9.318374999999988972e+01 4.481685495881965506e-64
9.339749999999989427e+01 1.220385824802865994e-63
9.361124999999989882e+01 2.027676357622824615e-63
9.382499999999990337e+01 2.717764375422896968e-63
9.403874999999990791e+01 3.106826255270570024e-63
9.425249999999991246e+01 3.005688133208805311e-63
9.446624999999988859e+01 2.256575173882740459e-63
9.467999999999989313e+01 7.766661841703713978e-64
9.489374999999989768e+01 -1.398027269835106835e-63
9.510749999999990223e+01 -4.077313668562726640e-63
9.532124999999990678e+01 -6.900264281777013568e-63
9.553499999999991132e+01 -9.347500362747804189e-63
9.574874999999988745e+01 -1.079004788598669843e-62
9.596249999999989200e+01 -1.057775426369345795e-62
9.617624999999989654e+01 -8.163263335903621429e-63
9.638999999999990109e+01 -3.248913790188613533e-63
9.660374999999990564e+01 4.065146918751257907e-63
9.681749999999991019e+01 1.316116252462097590e-62
9.703124999999988631e+01 2.284635761396598374e-62
9.724499999999989086e+01 3.139121058068299757e-62
9.745874999999989541e+01 3.668891626781741520e-62
9.767249999999989996e+01 3.654592377329420503e-62
9.788624999999990450e+01 2.909045590352073778e-62
9.809999999999990905e+01 1.325770651859751212e-62
9.831374999999988518e+01 -1.071912294368013582e-62
9.852749999999988972e+01 -4.090814897597309712e-62
9.874124999999989427e+01 -7.347937172540332233e-62
9.895499999999989882e+01 -1.028147944241260917e-61
9.916874999999990337e+01 -1.220113110130678433e-61
9.938249999999990791e+01 -1.238094009917195811e-61
9.959624999999988404e+01 -1.019070539298368447e-61
9.980999999999988859e+01 -5.252816031155299256e-62
1.000237499999998931e+02 2.397968387093095502e-62
1.002374999999998977e+02 1.218239923054666164e-61
1.004512499999999022e+02 2.290760227151757650e-61
1.006649999999999068e+02 3.279552549693800465e-61
1.008787499999998829e+02 3.963577616389536593e-61
1.010924999999998875e+02 4.107399488532547161e-61
1.013062499999998920e+02 3.502392197473460979e-61
1.015199999999998965e+02 2.016312932410717679e-61
1.017337499999999011e+02 -3.557113001318422331e-62
1.019474999999999056e+02 -3.448281450438809904e-61
1.021612499999999102e+02 -6.901914618266086569e-61
1.023749999999998863e+02 -1.016917007289468875e-60
1.025887499999998909e+02 -1.255923108284181747e-60
1.028024999999998954e+02 -1.332472094248568502e-60
1.030162499999999000e+02 -1.178753837667432634e-60
1.032299999999999045e+02 -7.491897556710485250e-61
1.034437499999999091e+02 -3.637162851124138110e-62
1.036574999999998852e+02 9.152369375558252867e-61
1.038712499999998897e+02 2.001187742595494331e-60
1.040849999999998943e+02 3.057857700997324163e-60
1.042987499999998988e+02 3.874848464803502841e-60
1.045124999999999034e+02 4.220254626837889592e-60
1.047262499999999079e+02 3.878011192329781925e-60
1.049399999999998840e+02 2.693971532055381620e-60
1.051537499999998886e+02 6.246562162823136847e-61
1.053674999999998931e+02 -2.219775484508567553e-60
1.055812499999998977e+02 -5.548289788145019824e-60
1.057949999999999022e+02 -8.887511202804630345e-60
1.060087499999999068e+02 -1.161424463113182777e-59
1.062224999999998829e+02 -1.302628139886232658e-59
1.064362499999998875e+02 -1.244985174393150543e-59
1.066499999999998920e+02 -9.374670229034110818e-60
1.068637499999998965e+02 -3.599580428649831817e-60
1.070774999999999011e+02 4.635313957448643310e-60
1.072912499999999056e+02 1.455885454828810542e-59
1.075049999999998818e+02 2.485089253468305562e-59
1.077187499999998863e+02 3.372110593707952406e-59
1.079324999999998909e+02 3.909880928061300333e-59
1.081462499999998954e+02 3.893154207899986970e-59
1.083599999999999000e+02 3.156935282516260426e-59
1.085737499999999045e+02 1.618901600212284287e-59
1.087874999999998806e+02 -6.808373292548618250e-60
1.090012499999998852e+02 -3.550748483978794597e-59
1.092149999999998897e+02 -6.638129528264578866e-59
1.094287499999998943e+02 -9.446002663350841058e-59
1.096424999999998988e+02 -1.138128832774647220e-58
1.098562499999999034e+02 -1.183450796423782435e-58
1.100699999999998795e+02 -1.028558049286852761e-58
1.102837499999998840e+02 -6.423975926949191508e-59
1.104974999999998886e+02 -2.655497054966711499e-60
1.107112499999998931e+02 7.756014849294726270e-59
1.109249999999998977e+02 1.674685451188641242e-58
1.111387499999999022e+02 2.538115981128457926e-58
1.113524999999998784e+02 3.201480298351938544e-58
1.115662499999998829e+02 3.488797734880347298e-58
1.117799999999998875e+02 3.240555270978220788e-58
1.119937499999998920e+02 2.346687987138701691e-58
1.122074999999998965e+02 7.800221028771345562e-59
1.124212499999999011e+02 -1.375610159660522114e-58
1.126349999999998772e+02 -3.909011207286101833e-58
1.128487499999998818e+02 -6.483115275227992038e-58
1.130624999999998863e+02 -8.658957244447493035e-58
1.132762499999998909e+02 -9.944038142420327240e-58
1.134899999999998954e+02 -9.863273743518861675e-58
1.137037499999999000e+02 -8.046303507988382088e-58
1.139174999999998761e+02 -4.320448591728519447e-58
1.141312499999998806e+02 1.205205153176402593e-58
1.143449999999998852e+02 8.081431140505874389e-58
1.145587499999998897e+02 1.550304849238409522e-57
1.147724999999998943e+02 2.234968162492915292e-57
1.149862499999998988e+02 2.729114831176368744e-57
1.151999999999998749e+02 2.895668936923559150e-57
1.154137499999998795e+02 2.615628756949177896e-57
1.156274999999998840e+02 1.813053917210668236e-57
1.158412499999998886e+02 4.794696066578388200e-58
1.160549999999998931e+02 -1.306538294009998460e-57
1.162687499999998977e+02 -3.369051881741377934e-57
1.164824999999999022e+02 -5.438007693937393342e-57
1.166962499999998784e+02 -7.168822961454855464e-57
1.169099999999998829e+02 -8.179518233803119466e-57
1.171237499999998875e+02 -8.103815062677882881e-57
1.173374999999998920e+02 -6.655710083614181770e-57
1.175512499999998965e+02 -3.698025692868140482e-57
1.177649999999999011e+02 6.951194534855824455e-58
1.179787499999998772e+02 6.193580236481915562e-57
1.181924999999998818e+02 1.219602205463629395e-56
1.184062499999998863e+02 1.785450431508022453e-56
1.186199999999998909e+02 2.214533561407718183e-56
1.188337499999998954e+02 2.398712919915506763e-56
1.190474999999999000e+02 2.239981867233841591e-56
1.192612499999998761e+02 1.669034750810437266e-56
1.194749999999998806e+02 6.642816477719631171e-57
1.196887499999998852e+02 -7.315714846435142393e-57
1.199024999999998897e+02 -2.400648625156997023e-56
1.201162499999998943e+02 -4.148001382931225747e-56
1.203299999999998988e+02 -5.711438363585725424e-56
1.205437499999998749e+02 -6.784780566444687104e-56
1.207574999999998795e+02 -7.054619755114067378e-56
1.209712499999998840e+02 -6.248577662372692301e-56
1.211849999999998886e+02 -4.190706829307234864e-56
1.213987499999998931e+02 -8.573162917477634233e-57
1.216124999999998977e+02 3.575494256899141385e-56
1.218262499999998738e+02 8.702538432066619919e-56
1.220399999999998784e+02 1.388847355949888067e-55
1.222537499999998829e+02 1.830343281050775288e-55
1.224674999999998875e+02 2.100052664180181378e-55
1.226812499999998920e+02 2.103524334713109194e-55
1.228949999999998965e+02 1.762005355464743180e-55
1.231087499999998727e+02 1.029978682527676801e-55
1.233224999999998772e+02 -8.744721375667007880e-57
1.235362499999998818e+02 -1.520187662155613207e-55
1.237499999999998863e+02 -3.125163011005820482e-55
1.239637499999998909e+02 -4.687890736378090929e-55
1.241774999999998954e+02 -5.936403519607671242e-55
1.243912499999998715e+02 -6.569008789164611170e-55
1.246049999999998761e+02 -6.295563727648813145e-55
1.248187499999998806e+02 -4.889558389285084457e-55
1.250324999999998852e+02 -2.245608323016249238e-55
1.252462499999998897e+02 1.565681460375196167e-55
1.254599999999998943e+02 6.255632708362842710e-55
1.256737499999998704e+02 1.129938740668671968e-54
1.258874999999998749e+02 1.595241850684866586e-54
1.261012499999998795e+02 1.930970872275138863e-54
1.263149999999998840e+02 2.041081616600882652e-54
1.265287499999998886e+02 1.838709063685120137e-54
1.267424999999998931e+02 1.263876692725270268e-54