2.024999999999579359e-01 -1.746830795241610095e-94
4.162499999999482725e-01 -1.362249085104238827e-92
6.299999999999528200e-01 -3.256552792672104270e-92
8.437499999999573674e-01 -5.409688746050406122e-92
1.057499999999947704e+00 -7.203773129645983053e-92
1.271249999999952252e+00 -7.673753196082155939e-92
1.484999999999956799e+00 -5.603590129191292884e-92
1.698749999999947136e+00 2.086015127175096790e-93
1.912499999999951683e+00 1.048707131323387542e-91
2.126249999999956231e+00 2.483934893093080994e-91
2.339999999999946567e+00 4.104717862581234121e-91
2.553749999999951115e+00 5.449880502320722384e-91
2.767499999999955662e+00 5.808021356011774185e-91
2.981249999999945999e+00 4.291080747234830769e-91
3.194999999999950546e+00 2.850130283277462194e-93
3.408749999999955094e+00 -7.499349097135373942e-91
3.622499999999945430e+00 -1.800705718873851409e-90
3.836249999999949978e+00 -2.990576184986121614e-90
4.049999999999954525e+00 -3.990931548725575476e-90
4.263749999999944862e+00 -4.296516044397502226e-90
4.477499999999949409e+00 -3.277359786967362717e-90
4.691249999999953957e+00 -3.139058982180195094e-91
4.904999999999944293e+00 4.972529848128637242e-90
5.118749999999948841e+00 1.240724179742298356e-89
5.332499999999953388e+00 2.091976831711913694e-89
5.546249999999943725e+00 2.827211410426203953e-89
5.759999999999948272e+00 3.100498358105920768e-89
5.973749999999952820e+00 2.477764930408364921e-89
6.187499999999943157e+00 5.263247329716056864e-90
6.401249999999947704e+00 -3.031931997707718042e-89
6.614999999999952252e+00 -8.112166855806331803e-89
6.828749999999942588e+00 -1.403681675746353639e-88
7.042499999999947136e+00 -1.934942176661940628e-88
7.256249999999951683e+00 -2.176749143555832862e-88
7.469999999999942020e+00 -1.838834086223135581e-88
7.683749999999946567e+00 -6.253755139874347121e-89
7.897499999999951115e+00 1.667081426253393579e-88
8.111249999999941451e+00 5.015069236237334506e-88
8.324999999999945999e+00 9.017696543478484739e-88
8.538749999999950546e+00 1.277056473003287435e-87
8.752499999999940883e+00 1.482381947514247696e-87
8.966249999999945430e+00 1.329629334880473315e-87
9.179999999999949978e+00 6.213872694330066551e-88
9.393749999999940314e+00 -7.889182322705840140e-88
9.607499999999944862e+00 -2.912948265175627560e-87
9.821249999999949409e+00 -5.531399553164919482e-87
1.003499999999993975e+01 -8.109993668885513106e-87
1.024874999999994429e+01 -9.763603265392087358e-87
1.046249999999994884e+01 -9.312724521542240267e-87
1.067624999999993918e+01 -5.475343049238916776e-87
1.088999999999994373e+01 2.778914332610161936e-87
1.110374999999994827e+01 1.572110631244746778e-86
1.131749999999993861e+01 3.226674004041208985e-86
1.153124999999994316e+01 4.942763601869399375e-86
1.174499999999994770e+01 6.202244603597154195e-86
1.195874999999993804e+01 6.290979367543122546e-86
1.217249999999994259e+01 4.401040378963756616e-86
1.238624999999994714e+01 -1.697658422559692378e-87
1.259999999999993747e+01 -7.722119703444342678e-86
1.281374999999994202e+01 -1.779585404331245592e-85
1.302749999999994657e+01 -2.882120387639996442e-85
1.324124999999995111e+01 -3.789899740899391199e-85
1.345499999999994145e+01 -4.086280362136895788e-85
1.366874999999994600e+01 -3.278408433491532178e-85
1.388249999999995055e+01 -9.043458952175512026e-86
1.409624999999994088e+01 3.300965980636152381e-85
1.430999999999994543e+01 9.195825836525586042e-85
1.452374999999994998e+01 1.601613176966284906e-84
1.473749999999994031e+01 2.221798813845784346e-84
1.495124999999994486e+01 2.546457421196325764e-84
1.516499999999994941e+01 2.285220542035197912e-84
1.537874999999993975e+01 1.145545201896637455e-84
1.559249999999994429e+01 -1.077803334385787423e-84
1.580624999999994884e+01 -4.384154428231295355e-84
1.601999999999993918e+01 -8.437710128541373547e-84
1.623374999999994373e+01 -1.246092475820869785e-83
1.644749999999994827e+01 -1.519731688042544119e-83
1.666124999999993861e+01 -1.499815356144857901e-83
1.687499999999994316e+01 -1.008306753738727298e-83
1.708874999999994770e+01 9.976809022898025827e-85
1.730249999999993804e+01 1.871604759914729536e-83
1.751624999999994259e+01 4.181741888487999347e-83
1.772999999999994714e+01 6.663524633959678028e-83
1.794374999999993747e+01 8.671570111699907523e-83
1.815749999999994202e+01 9.305546496967283633e-83
1.837124999999994657e+01 7.525506116453647759e-83
1.858499999999993690e+01 2.379782234137871673e-83
1.879874999999994145e+01 -6.654679371673673886e-83
1.901249999999994600e+01 -1.925355365585845928e-82
1.922624999999993634e+01 -3.382603586804583532e-82
1.943999999999994088e+01 -4.722077448056449120e-82
1.965374999999994543e+01 -5.472038329424203285e-82
1.986749999999993577e+01 -5.050030235371012559e-82
2.008124999999994031e+01 -2.869484309537791960e-82
2.029499999999994486e+01 1.488203583255297973e-82
2.050874999999993520e+01 8.048018032162872679e-82
2.072249999999993975e+01 1.619705125246271319e-81
2.093624999999994429e+01 2.448300618384236717e-81
2.114999999999993463e+01 3.054081916818072901e-81
2.136374999999993918e+01 3.124561159376858355e-81
2.157749999999994373e+01 2.318155221339685465e-81
2.179124999999993406e+01 3.475896453899972717e-82
2.200499999999993861e+01 -2.903135107135341582e-81
2.221874999999994316e+01 -7.242844128305307723e-81
2.243249999999993349e+01 -1.204723000491676693e-80
2.264624999999993804e+01 -1.618582576427539311e-80
2.285999999999994259e+01 -1.805462528904764890e-80
2.307374999999993292e+01 -1.576694670675019140e-80
2.328749999999993747e+01 -7.539418234657240666e-81
2.350124999999994202e+01 7.725839980988315346e-81
2.371499999999993236e+01 2.971883391934384948e-80
2.392874999999993690e+01 5.598900435027131960e-80
2.414249999999994145e+01 8.141083052628305178e-80
2.435624999999993179e+01 9.811944706106469973e-80
2.456999999999993634e+01 9.620784427465420557e-80
2.478374999999994088e+01 6.542291165124130870e-80
2.499749999999993122e+01 -2.057744957189747138e-81
2.521124999999993577e+01 -1.079551492317436574e-79
2.542499999999994031e+01 -2.438800320924334316e-79
2.563874999999993065e+01 -3.879585163675154174e-79
2.585249999999993520e+01 -5.034365970900040420e-79
2.606624999999993975e+01 -5.407977659369560943e-79
2.627999999999994429e+01 -4.447783252064568022e-79
2.649374999999993463e+01 -1.670261321150586398e-79
2.670749999999993918e+01 3.160690998768846643e-79
2.692124999999994373e+01 9.826129370657537007e-79
2.713499999999993406e+01 1.745859600882272780e-78
2.734874999999993861e+01 2.442659741129006095e-78
2.756249999999994316e+01 2.837393481143513472e-78
2.777624999999993349e+01 2.648894265890744837e-78
2.798999999999993804e+01 1.605407219097696496e-78
2.820374999999994259e+01 -4.726586066145119517e-79
2.841749999999993292e+01 -3.570557329194598897e-78
2.863124999999993747e+01 -7.376178870377281823e-78
2.884499999999994202e+01 -1.120516852316758870e-77
2.905874999999993236e+01 -1.399099101712002240e-77
2.927249999999993690e+01 -1.437820817641654331e-77
2.948624999999994145e+01 -1.094853015705580035e-77
2.969999999999993179e+01 -2.587309667967787960e-78
2.991374999999993634e+01 1.103774041957575451e-77
3.012749999999994088e+01 2.896093917676662071e-77
3.034124999999993122e+01 4.849232811433980705e-77
3.055499999999993577e+01 6.504890541169106785e-77
3.076874999999994031e+01 7.242823282069637960e-77
3.098249999999993065e+01 6.368215260629738647e-77
3.119624999999993520e+01 3.266226901028455399e-77
3.140999999999993975e+01 -2.384276037877425567e-77
3.162374999999993008e+01 -1.036665171646618994e-76
3.183749999999993463e+01 -1.970449964671844192e-76
3.205124999999993918e+01 -2.853529525586585211e-76
3.226499999999992951e+01 -3.416454107305675237e-76
3.247874999999993406e+01 -3.337876456380982821e-76
3.269249999999993861e+01 -2.306382426745107431e-76
3.290624999999992895e+01 -1.113826038768715302e-77
3.311999999999993349e+01 3.247229221815634741e-76
3.333374999999993804e+01 7.451385579557567519e-76
3.354749999999992838e+01 1.178981988353340908e-75
3.376124999999993292e+01 1.515287400440595089e-75
3.397499999999993747e+01 1.613374080551265540e-75
3.418874999999992781e+01 1.326178764671183773e-75
3.440249999999993236e+01 5.370130520714379155e-76
3.461624999999993690e+01 -7.936081054998548935e-76
3.482999999999992724e+01 -2.578833983331552566e-75
3.504374999999993179e+01 -4.566264151527421122e-75
3.525749999999993634e+01 -6.324171202566008449e-75
3.547124999999992667e+01 -7.269348375184897624e-75
3.568499999999993122e+01 -6.749360076915404936e-75
3.589874999999993577e+01 -4.183444824646813657e-75
3.611249999999992610e+01 7.474642931996580476e-76
3.632624999999993065e+01 7.888948370663120058e-75
3.653999999999993520e+01 1.642582023083660241e-74
3.675374999999992554e+01 2.478110022380286266e-74
3.696749999999993008e+01 3.066920336458995273e-74
3.718124999999993463e+01 3.136220917550670956e-74
3.739499999999992497e+01 2.419901112810741614e-74
3.760874999999992951e+01 7.316556811443866982e-75
3.782249999999993406e+01 -1.948615950192625895e-74
3.803624999999993861e+01 -5.391722042642354195e-74
3.824999999999994316e+01 -9.062772597087550241e-74
3.846374999999991928e+01 -1.211854307109722836e-73
3.867749999999992383e+01 -1.348397220696821493e-73
3.889124999999992838e+01 -1.202398773865101232e-73
3.910499999999993292e+01 -6.809298374097130839e-74
3.931874999999993747e+01 2.550295645222380496e-74
3.953249999999994202e+01 1.556092505552028595e-73
3.974624999999991815e+01 3.057181648481734971e-73
3.995999999999992269e+01 4.467700205932904841e-73
4.017374999999992724e+01 5.389426772478270601e-73
4.038749999999993179e+01 5.369796453318470660e-73
4.060124999999993634e+01 3.992516998433701759e-73
4.081499999999994088e+01 9.987790645059707574e-74
4.102874999999991701e+01 -3.578391137045340918e-73
4.124249999999992156e+01 -9.294940301382628088e-73
4.145624999999992610e+01 -1.522834253711533277e-72
4.166999999999993065e+01 -2.000100321459735154e-72
4.188374999999993520e+01 -2.192731445431433539e-72
4.209749999999993975e+01 -1.929996189787634097e-72
4.231124999999991587e+01 -1.080280032557331934e-72
4.252499999999992042e+01 3.999196830151767601e-73
4.273874999999992497e+01 2.418201667693450098e-72
4.295249999999992951e+01 4.711946393608452490e-72
4.316624999999993406e+01 6.841444955063891775e-72
4.337999999999993861e+01 8.223362185002423701e-72
4.359374999999991473e+01 8.212751007737479496e-72
4.380749999999991928e+01 6.233289146745677837e-72
4.402124999999992383e+01 1.943569070200272337e-72
4.423499999999992838e+01 -4.586252052444527590e-72
4.444874999999993292e+01 -1.272570280284302859e-71
4.466249999999993747e+01 -2.120960687869797504e-71
4.487624999999991360e+01 -2.818470090990535189e-71
4.508999999999991815e+01 -3.141303327489414264e-71
4.530374999999992269e+01 -2.864444253411608557e-71
4.551749999999992724e+01 -1.813527363252480548e-71
4.573124999999993179e+01 7.522652559109981878e-73
4.594499999999993634e+01 2.697875815815574980e-71
4.615874999999991246e+01 5.742627664605701818e-71
4.637249999999991701e+01 8.682162836832468541e-71
4.658624999999992156e+01 1.081200590663170302e-70
4.679999999999992610e+01 1.134291211740314931e-70
4.701374999999993065e+01 9.545867662142575909e-71
4.722749999999993520e+01 4.936033278791109405e-71
4.744124999999993975e+01 -2.531393708643775237e-71
4.765499999999991587e+01 -1.229223648526579781e-70
4.786874999999992042e+01 -2.307730989917032283e-70
4.808249999999992497e+01 -3.293476234419448185e-70
4.829624999999992951e+01 -3.940574727642185603e-70
4.850999999999993406e+01 -3.986716604318690771e-70
4.872374999999993861e+01 -3.202462081431065202e-70
4.893749999999991473e+01 -1.450243372166545217e-70
4.915124999999991928e+01 1.255847402851257466e-70
4.936499999999992383e+01 4.701250286874370839e-70
4.957874999999992838e+01 8.446191994884869412e-70
4.979249999999993292e+01 1.183722799900015515e-69
5.000624999999993747e+01 1.406390119156623560e-69
5.021999999999991360e+01 1.426345215709122715e-69
5.043374999999991815e+01 1.166863254039432079e-69
5.064749999999992269e+01 5.784747525829123286e-70
5.086124999999992724e+01 -3.426648651527284189e-70
5.107499999999993179e+01 -1.538707141935701551e-69
5.128874999999993634e+01 -2.879730112270193390e-69
5.150249999999991246e+01 -4.162462662732288283e-69
5.171624999999991701e+01 -5.121114222075329162e-69
5.192999999999992156e+01 -5.452424344444536109e-69
5.214374999999992610e+01 -4.855693161610044916e-69
5.235749999999993065e+01 -3.086737764005018902e-69
5.257124999999993520e+01 -2.243801149620513330e-71
5.278499999999991132e+01 4.270213780800734421e-69
5.299874999999991587e+01 9.469815604277118018e-69
5.321249999999992042e+01 1.495367904096888165e-68
5.342624999999992497e+01 1.978426039400506820e-68
5.363999999999992951e+01 2.274701063884829347e-68
5.385374999999993406e+01 2.245774748845195670e-68
5.406749999999991019e+01 1.755380375724021023e-68
5.428124999999991473e+01 6.973777437069422996e-69
5.449499999999991928e+01 -9.685689622927766674e-69
5.470874999999992383e+01 -3.177139218170066274e-68
5.492249999999992838e+01 -5.719809788595651147e-68
5.513624999999993292e+01 -8.219208123528475066e-68
5.534999999999990905e+01 -1.012751478768664398e-67
5.556374999999991360e+01 -1.076205177076814058e-67
5.577749999999991815e+01 -9.389439882225845442e-68
5.599124999999992269e+01 -5.364109600948808380e-68
5.620499999999992724e+01 1.683181404841052361e-68
5.641874999999993179e+01 1.162568506432503358e-67
5.663249999999990791e+01 2.362621429717073402e-67
5.684624999999991246e+01 3.598182101568151377e-67
5.705999999999991701e+01 4.609463230224449750e-67
5.727374999999992156e+01 5.063892036043834667e-67
5.748749999999992610e+01 4.598154875723655934e-67
5.770124999999993065e+01 2.887928449630615259e-67
5.791499999999990678e+01 -2.579683633211634302e-68
5.812874999999991132e+01 -4.789822525173733318e-67
5.834249999999991587e+01 -1.031503575388877190e-66
5.855624999999992042e+01 -1.602912088725224934e-66
5.876999999999992497e+01 -2.071182180638886517e-66
5.898374999999992951e+01 -2.281983272801868215e-66
5.919749999999990564e+01 -2.069891965683911015e-66
5.941124999999991019e+01 -1.291998114768523204e-66
5.962499999999991473e+01 1.284200188495220875e-67
5.983874999999991928e+01 2.153961276501657615e-66
6.005249999999992383e+01 4.590377993350025979e-66
6.026624999999992838e+01 7.061557459560691587e-66
6.047999999999990450e+01 9.016071192479054459e-66
6.069374999999990905e+01 9.777800804389312209e-66
6.090749999999991360e+01 8.648197004811304598e-66
6.112124999999991815e+01 5.058790011378942539e-66
6.133499999999992269e+01 -1.239948560487266243e-66
6.154874999999992724e+01 -9.981946462581591339e-66
6.176249999999993179e+01 -2.022384002340562190e-65
6.197624999999990791e+01 -3.027120982688540954e-65
6.218999999999991246e+01 -3.774773291425999941e-65
6.240374999999991701e+01 -3.985216140348744854e-65
6.261749999999992156e+01 -3.382310469630245010e-65
6.283124999999992610e+01 -1.759143824700135068e-65
6.304499999999993065e+01 9.452134976518162397e-66
6.325874999999990678e+01 4.570405561518552122e-65
6.347249999999991132e+01 8.678983941347052979e-65
6.368624999999991587e+01 1.254111067109821652e-64
6.389999999999992042e+01 1.518009054892687465e-64
6.411374999999992497e+01 1.549334941091887828e-64
6.432749999999992951e+01 1.245204216535601718e-64
6.454124999999990564e+01 5.365634246179559249e-65
6.475499999999991019e+01 -5.822734463363629805e-65
6.496874999999991473e+01 -2.026525959809999740e-64
6.518249999999991928e+01 -3.603473153179844704e-64
6.539624999999992383e+01 -5.012482270102648133e-64
6.560999999999992838e+01 -5.869574575221155269e-64
6.582374999999990450e+01 -5.760766859006102616e-64
6.603749999999990905e+01 -4.323545767884830728e-64
6.625124999999991360e+01 -1.349158690001518817e-64
6.646499999999991815e+01 3.109238190735669289e-64
6.667874999999992269e+01 8.644778219782808825e-64
6.689249999999992724e+01 1.444866354194544771e-63
6.710624999999990337e+01 1.933356107641172461e-63
6.731999999999990791e+01 2.185138733111321691e-63
6.753374999999991246e+01 2.051576388251868264e-63
6.774749999999991701e+01 1.411974659313820185e-63
6.796124999999992156e+01 2.114257679377114864e-64
6.817499999999992610e+01 -1.501442061632691298e-63
6.838874999999990223e+01 -3.545328407234245734e-63
6.860249999999990678e+01 -5.595591235637247004e-63
6.881624999999991132e+01 -7.201518230454421133e-63
6.902999999999991587e+01 -7.838351047689281052e-63
6.924374999999992042e+01 -6.995664126919712148e-63
6.945749999999992497e+01 -4.296150131382092915e-63
6.967124999999990109e+01 3.702057204043409383e-64
6.988499999999990564e+01 6.720698725994384191e-63
7.009874999999991019e+01 1.399449267679605246e-62
7.031249999999991473e+01 2.094128299719969550e-62
7.052624999999991928e+01 2.591429792256690273e-62
7.073999999999992383e+01 2.708590733179520168e-62
7.095374999999989996e+01 2.278356316077675628e-62
7.116749999999990450e+01 1.191613391364910677e-62
7.138124999999990905e+01 -5.570512135227027500e-63
7.159499999999991360e+01 -2.829889134988105941e-62
7.180874999999991815e+01 -5.323611205019462451e-62
7.202249999999992269e+01 -7.575311276714044330e-62
7.223624999999989882e+01 -9.005735528189122725e-62
7.244999999999990337e+01 -9.003953562268669294e-62
7.266374999999990791e+01 -7.049785563956930697e-62
7.287749999999991246e+01 -2.860654676227986662e-62
7.309124999999991701e+01 3.460692612573789870e-62
7.330499999999992156e+01 1.130983992380094998e-61
7.351874999999989768e+01 1.953262512332372308e-61
7.373249999999990223e+01 2.648037650694538376e-61
7.394624999999990678e+01 3.019322091510199531e-61
7.415999999999991132e+01 2.871679611744016468e-61
7.437374999999991587e+01 2.053018818626443684e-61
7.458749999999992042e+01 5.030557737325889137e-62
7.480124999999992497e+01 -1.701182061302800621e-61
7.501499999999990109e+01 -4.313825209013168885e-61
7.522874999999990564e+01 -6.914414576741509854e-61
7.544249999999991019e+01 -8.938215731475403373e-61
7.565624999999991473e+01 -9.748543222667556257e-61
7.586999999999991928e+01 -8.749894553706699550e-61
7.608374999999992383e+01 -5.531327414860067878e-61
7.629749999999989996e+01 -1.923027326035809504e-63
7.651124999999990450e+01 7.390612440094019669e-61
7.672499999999990905e+01 1.575757774621666183e-60
7.693874999999991360e+01 2.361322937014101684e-60
7.715249999999991815e+01 2.909869314800159699e-60
7.736624999999992269e+01 3.023347046325322462e-60
7.757999999999989882e+01 2.530184053839198450e-60
7.779374999999990337e+01 1.331264227462053426e-60
7.800749999999990791e+01 -5.542720674578521657e-61
7.822124999999991246e+01 -2.953414340787197657e-60
7.843499999999991701e+01 -5.525007193758052410e-60
7.864874999999992156e+01 -7.777054640081767980e-60
7.886249999999989768e+01 -9.122389929352853741e-60
7.907624999999990223e+01 -8.973410100333989406e-60
7.928999999999990678e+01 -6.868311055945915815e-60
7.950374999999991132e+01 -2.611906028568293077e-60
7.971749999999991587e+01 3.594646379383036758e-60
7.993124999999992042e+01 1.106692736118706769e-59
8.014499999999989654e+01 1.862600731446458709e-59
8.035874999999990109e+01 2.469005674683869642e-59
8.057249999999990564e+01 2.748259466950023994e-59
8.078624999999991019e+01 2.535035480532554341e-59
8.099999999999991473e+01 1.715771451854047670e-59
8.121374999999991928e+01 2.697330345406743501e-60
8.142749999999989541e+01 -1.696640374085652099e-59
8.164124999999989996e+01 -3.931681751564124008e-59
8.185499999999990450e+01 -6.045864684493295536e-59
8.206874999999990905e+01 -7.551156431121482228e-59
8.228249999999991360e+01 -7.934104932438158093e-59
8.249624999999991815e+01 -6.757676815186069289e-59
8.270999999999989427e+01 -3.779063204492658261e-59
8.292374999999989882e+01 9.368442650602744520e-60
8.313749999999990337e+01 6.934111252137236600e-59
8.335124999999990791e+01 1.334002298333505701e-58
8.356499999999991246e+01 1.892067196110828848e-58
8.377874999999991701e+01 2.223152866055024413e-58
8.399249999999989313e+01 2.186046700496086983e-58
8.420624999999989768e+01 1.673998915210973929e-58
8.441999999999990223e+01 6.483188085208678177e-59
8.463374999999990678e+01 -8.321355303915175864e-59
8.484749999999991132e+01 -2.593194143928255023e-58
8.506124999999991587e+01 -4.346809736277293419e-58
8.527499999999989200e+01 -5.717353514469880070e-58
8.548874999999989654e+01 -6.294845352175545467e-58
8.570249999999990109e+01 -5.712038875438923360e-58
8.591624999999990564e+01 -3.736196008437055690e-58
8.612999999999991019e+01 -3.603899515409271208e-59
8.634374999999991473e+01 4.125408579502304116e-58
8.655749999999989086e+01 9.104956128949446429e-58
8.677124999999989541e+01 1.366723026803552032e-57
8.698499999999989996e+01 1.671077464883349682e-57
8.719874999999990450e+01 1.712091984705066657e-57
8.741249999999990905e+01 1.400426915881545497e-57
8.762624999999991360e+01 6.947759746209277844e-58
8.783999999999991815e+01 -3.745685097347628961e-58
8.805374999999989427e+01 -1.690257758506329243e-57
8.826749999999989882e+01 -3.046330097869041363e-57
8.848124999999990337e+01 -4.165143970925625175e-57
8.869499999999990791e+01 -4.734831670455366716e-57
8.890874999999991246e+01 -4.465533710564584857e-57
8.912249999999991701e+01 -3.158125625978864293e-57
8.933624999999989313e+01 -7.745607293952543059e-58
8.954999999999989768e+01 2.504707697609654164e-57
8.976374999999990223e+01 6.252430113151379342e-57
8.997749999999990678e+01 9.810313808456469475e-57
9.019124999999991132e+01 1.235889635719128022e-56
9.040499999999991587e+01 1.304314072153960443e-56
9.061874999999989200e+01 1.114397566940247182e-56
9.083249999999989654e+01 6.273260342585313006e-57
9.104624999999990109e+01 -1.442165683904551476e-57
9.125999999999990564e+01 -1.122978860106666738e-56
9.147374999999991019e+01 -2.163807673822089004e-56
9.168749999999991473e+01 -3.063718184267381376e-56
9.190124999999989086e+01 -3.587311136162532982e-56
9.211499999999989541e+01 -3.506821237388551985e-56
9.232874999999989996e+01 -2.652771859216156331e-56
9.254249999999990450e+01 -9.677542386122762155e-57
9.275624999999990905e+01 1.447072173607915901e-56
9.296999999999991360e+01 4.304773061366132653e-56
9.318374999999988972e+01 7.136312089355596710e-56
9.339749999999989427e+01 9.333699337017659328e-56
9.361124999999989882e+01 1.023552224770313107e-55
9.382499999999990337e+01 9.249761654261740945e-56
9.403874999999990791e+01 5.999457375466569524e-56
9.425249999999991246e+01 4.676664847946557398e-57
9.446624999999988859e+01 -6.888783090191689841e-56
9.467999999999989313e+01 -1.508990854136310717e-55
9.489374999999989768e+01 -2.267729407693814752e-55
9.510749999999990223e+01 -2.787203230890984349e-55
9.532124999999990678e+01 -2.884724829082118155e-55
9.553499999999991132e+01 -2.409324991001147104e-55
9.574874999999988745e+01 -1.282762538822705111e-55
9.596249999999989200e+01 4.620927425189402870e-56
9.617624999999989654e+01 2.654211689343947798e-55
9.638999999999990109e+01 4.977666227174799353e-55
9.660374999999990564e+01 6.992677088722462406e-55
9.681749999999991019e+01 8.188456357646190280e-55
9.703124999999988631e+01 8.066536200133195766e-55
9.724499999999989086e+01 6.246656935550278804e-55
9.745874999999989541e+01 2.580334139832771865e-55
9.767249999999989996e+01 -2.748748202667985911e-55
9.788624999999990450e+01 -9.161864190248085357e-55
9.809999999999990905e+01 -1.568381899531984056e-54
9.831374999999988518e+01 -2.102150977144460760e-54
9.852749999999988972e+01 -2.373030645440287223e-54
9.874124999999989427e+01 -2.246066358886513514e-54
9.895499999999989882e+01 -1.625897941557117313e-54
9.916874999999990337e+01 -4.878184664457067814e-55
9.938249999999990791e+01 1.096145093594248615e-54
9.959624999999988404e+01 2.942823586773439825e-54
9.980999999999988859e+01 4.761483616926392252e-54
1.000237499999998931e+02 6.179954424529936763e-54
1.002374999999998977e+02 6.794699338119119679e-54
1.004512499999999022e+02 6.241867889543597156e-54
1.006649999999999068e+02 4.281336826454708735e-54
1.008787499999998829e+02 8.808577701884771274e-55
1.010924999999998875e+02 -3.716316473110721704e-54
1.013062499999998920e+02 -8.958489115877909854e-54
1.015199999999998965e+02 -1.400381237974196003e-53
1.017337499999999011e+02 -1.780103785922789926e-53
1.019474999999999056e+02 -1.923488673394442988e-53
1.021612499999999102e+02 -1.732613720602779037e-53
1.023749999999998863e+02 -1.146297054950321911e-53
1.025887499999998909e+02 -1.627302792573216562e-54
1.028024999999998954e+02 1.142953015743617237e-53
1.030162499999999000e+02 2.611047146662813255e-53
1.032299999999999045e+02 4.003905335657050042e-53
1.034437499999999091e+02 5.029607430484175852e-53
1.036574999999998852e+02 5.382918545811011572e-53
1.038712499999998897e+02 4.800513827844908458e-53
1.040849999999998943e+02 3.123831696439252330e-53
1.042987499999998988e+02 3.595769673583784690e-54
1.045124999999999034e+02 -3.274453003781553236e-53
1.047262499999999079e+02 -7.331173257039732985e-53
1.049399999999998840e+02 -1.115491003902866054e-52
1.051537499999998886e+02 -1.394793056910042019e-52
1.053674999999998931e+02 -1.488288428625612330e-52
1.055812499999998977e+02 -1.325246635980799031e-52
1.057949999999999022e+02 -8.638084743063548312e-53
1.060087499999999068e+02 -1.070636891838553298e-53
1.062224999999998829e+02 8.849427336796019192e-53
1.064362499999998875e+02 1.990688198800482187e-52
1.066499999999998920e+02 3.033062856074629194e-52
1.068637499999998965e+02 3.797428564148588571e-52
1.070774999999999011e+02 4.061775667016582490e-52
1.072912499999999056e+02 3.636595562400150352e-52
1.075049999999998818e+02 2.409598098180089350e-52
1.077187499999998863e+02 3.881593762359770232e-53
1.079324999999998909e+02 -2.269121855034766859e-52
1.081462499999998954e+02 -5.240669252393189338e-52
1.083599999999999000e+02 -8.057572084176255726e-52
1.085737499999999045e+02 -1.015112593552093604e-51
1.087874999999998806e+02 -1.093199379956592726e-51
1.090012499999998852e+02 -9.894703905189919856e-52
1.092149999999998897e+02 -6.734763809301878266e-52
1.094287499999998943e+02 -1.459896220552355796e-52
1.096424999999998988e+02 5.526950808845266669e-52
1.098562499999999034e+02 1.339586691967917792e-51
1.100699999999998795e+02 2.092914466325490962e-51
1.102837499999998840e+02 2.664298778418570622e-51
1.104974999999998886e+02 2.899113075755766895e-51
1.107112499999998931e+02 2.663433993715971502e-51
1.109249999999998977e+02 1.874329001760866409e-51
1.111387499999999022e+02 5.287536814207341197e-52
1.113524999999998784e+02 -1.274656900944129525e-51
1.115662499999998829e+02 -3.326804871124611368e-51
1.117799999999998875e+02 -5.317398406923028510e-51
1.119937499999998920e+02 -6.865301343145622938e-51
1.122074999999998965e+02 -7.569891410052239964e-51
1.124212499999999011e+02 -7.079461462940361216e-51
1.126349999999998772e+02 -5.168526134882690430e-51
1.128487499999998818e+02 -1.812144529572411818e-51
1.130624999999998863e+02 2.757161635712920001e-51
1.132762499999998909e+02 8.024845038188369462e-51
1.134899999999998954e+02 1.321499294980471929e-50
1.137037499999999000e+02 1.736409739340939698e-50
1.139174999999998761e+02 1.944811667520567546e-50
1.141312499999998806e+02 1.855330063529572273e-50
1.143449999999998852e+02 1.407081086884755238e-50
1.145587499999998897e+02 5.885722725157718278e-51
1.147724999999998943e+02 -5.475468745443574527e-51
1.149862499999998988e+02 -1.877626405845276621e-50
1.151999999999998749e+02 -3.211302627242499168e-50
1.154137499999998795e+02 -4.308976491087688896e-50
1.156274999999998840e+02 -4.912646665408006043e-50
1.158412499999998886e+02 -4.787873547940369377e-50
1.160549999999998931e+02 -3.772069805286341866e-50
1.162687499999998977e+02 -1.821960071829058634e-50
1.164824999999999022e+02 9.485876422084022423e-51
1.166962499999998784e+02 4.249607853227075642e-50
1.169099999999998829e+02 7.623095831176407483e-50
1.171237499999998875e+02 1.048334821654472040e-49
1.173374999999998920e+02 1.219032752143493609e-49
1.175512499999998965e+02 1.215101094896409674e-49
1.177649999999999011e+02 9.937389982132420901e-50
1.179787499999998772e+02 5.403994183874126824e-50
1.181924999999998818e+02 -1.216308399269239888e-50
1.184062499999998863e+02 -9.260777211526062431e-50
1.186199999999998909e+02 -1.764962134167271330e-49
1.188337499999998954e+02 -2.497659724557895348e-49
1.190474999999999000e+02 -2.968009419303029430e-49
1.192612499999998761e+02 -3.028362912747588890e-49
1.194749999999998806e+02 -2.567953941097778393e-49
1.196887499999998852e+02 -1.541558769683546679e-49
1.199024999999998897e+02 6.603464103447779106e-52
1.201162499999998943e+02 1.929143865960631359e-49
1.203299999999998988e+02 3.976841660220849319e-49
1.205437499999998749e+02 5.818414948735856015e-49
1.207574999999998795e+02 7.079603192339478084e-49
1.209712499999998840e+02 7.399201981584271672e-49
1.211849999999998886e+02 6.496106529200135380e-49
1.213987499999998931e+02 4.238050783973372783e-49
1.216124999999998977e+02 7.002281289187323072e-50
1.218262499999998738e+02 -3.799000839224275224e-49
1.220399999999998784e+02 -8.697035870573763187e-49
1.222537499999998829e+02 -1.322890908868862493e-48
1.224674999999998875e+02 -1.651471946441700576e-48
1.226812499999998920e+02 -1.768776467331862461e-48
1.228949999999998965e+02 -1.605014978950259444e-48
1.231087499999998727e+02 -1.123471284839999526e-48
1.233224999999998772e+02 -3.346095811127312367e-49
1.235362499999998818e+02 6.948778290384488694e-49
1.237499999999998863e+02 1.840843601842196182e-48
1.239637499999998909e+02 2.930288992957740846e-48
1.241774999999998954e+02 3.760527633876903814e-48
1.243912499999998715e+02 4.127937312709929246e-48
1.246049999999998761e+02 3.863411187082479154e-48
1.248187499999998806e+02 2.869780627595940546e-48
1.250324999999998852e+02 1.155064219550700943e-48
1.252462499999998897e+02 -1.145251584127900274e-48
1.254599999999998943e+02 -3.763286620436957926e-48
1.256737499999998704e+02 -6.315952202543896079e-48
1.258874999999998749e+02 -8.346166486665026535e-48
1.261012499999998795e+02 -9.386208850428885810e-48
1.263149999999998840e+02 -9.036997411967017621e-48
1.265287499999998886e+02 -7.052887333352850735e-48
1.267424999999998931e+02 -3.418312349953208558e-48
1.269562499999998693e+02 1.598989479877346166e-48