2.024999999999579359e-01 9.745451491600964297e-142
4.162499999999482725e-01 7.585908042540826573e-142
6.299999999999528200e-01 -1.582918654388307994e-142
8.437499999999573674e-01 -2.150990586483043949e-141
1.057499999999947704e+00 -5.466484020223568262e-141
1.271249999999952252e+00 -9.927657803945423126e-141
1.484999999999956799e+00 -1.450531768099299238e-140
1.698749999999947136e+00 -1.683222897272294598e-140
1.912499999999951683e+00 -1.285449958648277792e-140
2.126249999999956231e+00 3.023020030562964068e-141
2.339999999999946567e+00 3.677946780254003819e-140
2.553749999999951115e+00 9.201739363438860548e-140
2.767499999999955662e+00 1.651647485357862063e-139
2.981249999999945999e+00 2.387811272863975334e-139
3.194999999999950546e+00 2.742874745742723655e-139
3.408749999999955094e+00 2.072939599801706568e-139
3.622499999999945430e+00 -4.895997830745591869e-140
3.836249999999949978e+00 -5.843884723817801284e-139
4.049999999999954525e+00 -1.448779877770311419e-138
4.263749999999944862e+00 -2.579153346299138019e-138
4.477499999999949409e+00 -3.701585752319445238e-138
4.691249999999953957e+00 -4.228878568344623795e-138
4.904999999999944293e+00 -3.201816044260714102e-138
5.118749999999948841e+00 6.465806072127338121e-139
5.332499999999953388e+00 8.597694014952067454e-138
5.546249999999943725e+00 2.131597350067980566e-137
5.759999999999948272e+00 3.781970279802535213e-137
5.973749999999952820e+00 5.412683096747104171e-137
6.187499999999943157e+00 6.189097438134935823e-137
6.401249999999947704e+00 4.769271014430947594e-137
6.614999999999952252e+00 -5.946925008660301322e-138
6.828749999999942588e+00 -1.164516039548075134e-136
7.042499999999947136e+00 -2.926196592704205638e-136
7.256249999999951683e+00 -5.209538080464953751e-136
7.469999999999942020e+00 -7.480186443091287863e-136
7.683749999999946567e+00 -8.630591967954475521e-136
7.897499999999951115e+00 -6.894637313431877220e-136
8.111249999999941451e+00 1.519229363727307524e-138
8.324999999999945999e+00 1.437876971701180861e-135
8.538749999999950546e+00 3.738581467818793864e-135
8.752499999999940883e+00 6.742932780028382237e-135
8.966249999999945430e+00 9.792135067591102723e-135
9.179999999999949978e+00 1.151480609275885667e-134
9.393749999999940314e+00 9.719088461961153874e-135
9.607499999999944862e+00 1.549690961328793550e-135
9.821249999999949409e+00 -1.589189013021667898e-134
1.003499999999993975e+01 -4.427503507484726135e-134
1.024874999999994429e+01 -8.202960431367095842e-134
1.046249999999994884e+01 -1.217546396865392733e-133
1.067624999999993918e+01 -1.476166965058813690e-133
1.088999999999994373e+01 -1.338772858562891913e-133
1.110374999999994827e+01 -4.631753485893616902e-134
1.131749999999993861e+01 1.511966332677478812e-133
1.153124999999994316e+01 4.827946221214523735e-133
1.174499999999994770e+01 9.381169331043166476e-133
1.195874999999993804e+01 1.442544857921975130e-132
1.217249999999994259e+01 1.825763559532067676e-132
1.238624999999994714e+01 1.800423973435277904e-132
1.259999999999993747e+01 9.697832625838790004e-133
1.281374999999994202e+01 -1.110732934602293331e-132
1.302749999999994657e+01 -4.791581093643590892e-132
1.324124999999995111e+01 -1.008825337479117212e-131
1.345499999999994145e+01 -1.634622135642567532e-131
1.366874999999994600e+01 -2.185986947167679557e-131
1.388249999999995055e+01 -2.355916102090118714e-131
1.409624999999994088e+01 -1.695984402841306150e-131
1.430999999999994543e+01 3.345850533831383248e-132
1.452374999999994998e+01 4.233471902468336160e-131
1.473749999999994031e+01 1.020521206357328804e-130
1.495124999999994486e+01 1.778804908475093499e-130
1.516499999999994941e+01 2.539171955116487565e-130
1.537874999999993975e+01 2.985057765488877199e-130
1.559249999999994429e+01 2.619313447521277314e-130
1.580624999999994884e+01 7.938040986460697873e-131
1.601999999999993918e+01 -3.168555104465082943e-130
1.623374999999994373e+01 -9.718672449155818462e-130
1.644749999999994827e+01 -1.866787091861148708e-129
1.666124999999993861e+01 -2.863275517956542394e-129
1.687499999999994316e+01 -3.643179194175492346e-129
1.708874999999994770e+01 -3.664169721422841322e-129
1.730249999999993804e+01 -2.166298277432692192e-129
1.751624999999994259e+01 1.722255096416766421e-129
1.772999999999994714e+01 8.726047948238046475e-129
1.794374999999993747e+01 1.896739602385249453e-128
1.815749999999994202e+01 3.131530503072832528e-128
1.837124999999994657e+01 4.262320206885018182e-128
1.858499999999993690e+01 4.707431531091730564e-128
1.879874999999994145e+01 3.602636213611579364e-128
1.901249999999994600e+01 -1.078760208465517876e-129
1.922624999999993634e+01 -7.407572448124012247e-128
1.943999999999994088e+01 -1.871385042239789180e-127
1.965374999999994543e+01 -3.314202583075730520e-127
1.986749999999993577e+01 -4.760856824334710798e-127
2.008124999999994031e+01 -5.600618589293035442e-127
2.029499999999994486e+01 -4.888058659055380766e-127
2.050874999999993520e+01 -1.423969258378505180e-127
2.072249999999993975e+01 5.975502861612521251e-127
2.093624999999994429e+01 1.795615617871205220e-126
2.114999999999993463e+01 3.383182610189155096e-126
2.136374999999993918e+01 5.060310476327436353e-126
2.157749999999994373e+01 6.203453669251552930e-126
2.179124999999993406e+01 5.824502670023601086e-126
2.200499999999993861e+01 2.647451658902366692e-126
2.221874999999994316e+01 -4.619435108147886894e-126
2.243249999999993349e+01 -1.674957124482904834e-125
2.264624999999993804e+01 -3.318679577689310899e-125
2.285999999999994259e+01 -5.104680613912513981e-125
2.307374999999993292e+01 -6.418478325125425355e-125
2.328749999999993747e+01 -6.278748478394739631e-125
2.350124999999994202e+01 -3.414301068369998069e-125
2.371499999999993236e+01 3.466656531649632942e-125
2.392874999999993690e+01 1.515481765182248538e-124
2.414249999999994145e+01 3.115845011992956768e-124
2.435624999999993179e+01 4.875868516827472430e-124
2.456999999999993634e+01 6.215228816851672993e-124
2.478374999999994088e+01 6.211809682398578951e-124
2.499749999999993122e+01 3.680768792331474919e-124
2.521124999999993577e+01 -2.568358545947006306e-124
2.542499999999994031e+01 -1.324803009467759119e-123
2.563874999999993065e+01 -2.788627250291401480e-123
2.585249999999993520e+01 -4.399677908320337454e-123
2.606624999999993975e+01 -5.636090827065951431e-123
2.627999999999994429e+01 -5.681118877375668692e-123
2.649374999999993463e+01 -3.502959440373468913e-123
2.670749999999993918e+01 1.910996482688059327e-123
2.692124999999994373e+01 1.113132054049079180e-122
2.713499999999993406e+01 2.368929373180919950e-122
2.734874999999993861e+01 3.740193471464434833e-122
2.756249999999994316e+01 4.782689484294410963e-122
2.777624999999993349e+01 4.817197576198364725e-122
2.798999999999993804e+01 3.006487866359812951e-122
2.820374999999994259e+01 -1.442873804693361447e-122
2.841749999999993292e+01 -8.933842935381539675e-122
2.863124999999993747e+01 -1.900902763923340589e-121
2.884499999999994202e+01 -2.984542390018683521e-121
2.905874999999993236e+01 -3.788463754046748319e-121
2.927249999999993690e+01 -3.784959679481061745e-121
2.948624999999994145e+01 -2.344163380333243417e-121
2.969999999999993179e+01 1.102835309697545739e-121
2.991374999999993634e+01 6.799185959037553846e-121
3.012749999999994088e+01 1.432086320791040662e-120
3.034124999999993122e+01 2.223247496986440792e-120
3.055499999999993577e+01 2.787064459528754471e-120
3.076874999999994031e+01 2.743317863722129280e-120
3.098249999999993065e+01 1.656623724722241976e-120
3.119624999999993520e+01 -8.408552709715059677e-121
3.140999999999993975e+01 -4.862706270187119969e-120
3.162374999999993008e+01 -1.004206484156731368e-119
3.183749999999993463e+01 -1.532309405067043155e-119
3.205124999999993918e+01 -1.886136259415061553e-119
3.226499999999992951e+01 -1.814748068651209022e-119
3.247874999999993406e+01 -1.046390296636495276e-119
3.269249999999993861e+01 6.264888226405727210e-120
3.290624999999992895e+01 3.227585631082800492e-119
3.311999999999993349e+01 6.463470195298759114e-119
3.333374999999993804e+01 9.617135108979755177e-119
3.354749999999992838e+01 1.152592301346892593e-118
3.376124999999993292e+01 1.070799529131386182e-118
3.397499999999993747e+01 5.687908908016622039e-119
3.418874999999992781e+01 -4.470201455069544764e-119
3.440249999999993236e+01 -1.948646615240097738e-118
3.461624999999993690e+01 -3.720692095707035690e-118
3.482999999999992724e+01 -5.322021208144063303e-118
3.504374999999993179e+01 -6.106544351324736369e-118
3.525749999999993634e+01 -5.332003828047409604e-118
3.547124999999992667e+01 -2.369748314466940907e-118
3.568499999999993122e+01 3.002851065266026269e-118
3.589874999999993577e+01 1.028985619474130177e-117
3.611249999999992610e+01 1.805389932885641145e-117
3.632624999999993065e+01 2.392563154822922205e-117
3.653999999999993520e+01 2.498293481672466136e-117
3.675374999999992554e+01 1.857069949833688496e-117
3.696749999999993008e+01 3.490559989320661478e-118
3.718124999999993463e+01 -1.871627748456362219e-117
3.739499999999992497e+01 -4.289572705425343560e-117
3.760874999999992951e+01 -6.047842225135255360e-117
3.782249999999993406e+01 -6.138211902239533481e-117
3.803624999999993861e+01 -3.791568681060909325e-117
3.824999999999994316e+01 9.740881943113012478e-118
3.846374999999991928e+01 6.797225369413281927e-117
3.867749999999992383e+01 1.067536285768836529e-116
3.889124999999992838e+01 8.278669618364804009e-117
3.910499999999993292e+01 -4.787326550296026028e-117
3.931874999999993747e+01 -3.061447620640219013e-116
3.953249999999994202e+01 -6.576512654447496883e-116
3.974624999999991815e+01 -9.803820713682910079e-116
3.995999999999992269e+01 -1.047850890412920221e-115
4.017374999999992724e+01 -5.489330093591001767e-116
4.038749999999993179e+01 8.338833441106126897e-116
4.060124999999993634e+01 3.274835754686901385e-115
4.081499999999994088e+01 6.592342974062002356e-115
4.102874999999991701e+01 1.001708313915122899e-114
4.124249999999992156e+01 1.202807607001746407e-114
4.145624999999992610e+01 1.038507676039003996e-114
4.166999999999993065e+01 2.503908350490024386e-115
4.188374999999993520e+01 -1.370806872890260206e-114
4.209749999999993975e+01 -3.854067676448767559e-114
4.231124999999991587e+01 -6.886467889091572532e-114
4.252499999999992042e+01 -9.664069223578517187e-114
4.273874999999992497e+01 -1.082643951472210134e-113
4.295249999999992951e+01 -8.566442917662437725e-114
4.316624999999993406e+01 -1.006009622955586389e-114
4.337999999999993861e+01 1.310925329440881587e-113
4.359374999999991473e+01 3.343056690092947608e-113
4.380749999999991928e+01 5.691279730832959160e-113
4.402124999999992383e+01 7.694918298133704608e-113
4.423499999999992838e+01 8.323668660160090580e-113
4.444874999999993292e+01 6.295764973288539013e-113
4.466249999999993747e+01 3.781109124284211920e-114
4.487624999999991360e+01 -1.011450808540888258e-112
4.508999999999991815e+01 -2.466703245014680928e-112
4.530374999999992269e+01 -4.089408525757139986e-112
4.551749999999992724e+01 -5.408866720977867379e-112
4.573124999999993179e+01 -5.730804358964491266e-112
4.594499999999993634e+01 -4.233532224982983782e-112
4.615874999999991246e+01 -1.764176376562412010e-113
4.637249999999991701e+01 6.778851083106541856e-112
4.658624999999992156e+01 1.617430100445365829e-111
4.679999999999992610e+01 2.638188429640315359e-111
4.701374999999993065e+01 3.439650839255728420e-111
4.722749999999993520e+01 3.597849942719753191e-111
4.744124999999993975e+01 2.632188824130788309e-111
4.765499999999991587e+01 1.351870192228972483e-112
4.786874999999992042e+01 -4.040115907520843248e-111
4.808249999999992497e+01 -9.563886721119556901e-111
4.829624999999992951e+01 -1.544118438949916279e-110
4.850999999999993406e+01 -1.993385573496069924e-110
4.872374999999993861e+01 -2.068712292018312643e-110
4.893749999999991473e+01 -1.514208647830987110e-110
4.915124999999991928e+01 -1.265934470596471723e-111
4.936499999999992383e+01 2.145824573720323305e-110
4.957874999999992838e+01 5.096306337909847267e-110
4.979249999999993292e+01 8.176329044496740786e-110
5.000624999999993747e+01 1.047721178970652570e-109
5.021999999999991360e+01 1.081994362641989314e-109
5.043374999999991815e+01 7.984340173522319372e-110
5.064749999999992269e+01 1.079086025100785036e-110
5.086124999999992724e+01 -9.992376428871696905e-110
5.107499999999993179e+01 -2.407207387480190421e-109
5.128874999999993634e+01 -3.844894510027655480e-109
5.150249999999991246e+01 -4.890531753190414634e-109
5.171624999999991701e+01 -5.027313093351414228e-109
5.192999999999992156e+01 -3.757845707850188328e-109
5.214374999999992610e+01 -7.693889355060363197e-110
5.235749999999993065e+01 3.879600195365152699e-109
5.257124999999993520e+01 9.603360013171323422e-109
5.278499999999991132e+01 1.523038457428258545e-108
5.299874999999991587e+01 1.910929195211858568e-108
5.321249999999992042e+01 1.942055530953844800e-108
5.342624999999992497e+01 1.468220182650995381e-108
5.363999999999992951e+01 4.360563787300469658e-109
5.385374999999993406e+01 -1.058680809190396491e-108
5.406749999999991019e+01 -2.747100313509781862e-108
5.428124999999991473e+01 -4.217237654803229689e-108
5.449499999999991928e+01 -5.012858961372783838e-108
5.470874999999992383e+01 -4.795228942195355911e-108
5.492249999999992838e+01 -3.531908953266876638e-108
5.513624999999993292e+01 -1.643349647320632379e-108
5.534999999999990905e+01 -1.362395826286082493e-110
5.556374999999991360e+01 2.277957794610521229e-109
5.577749999999991815e+01 -1.795466904271387721e-108
5.599124999999992269e+01 -5.969500117536014584e-108
5.620499999999992724e+01 -1.039512661735560302e-107
5.641874999999993179e+01 -1.087484135812391887e-107
5.663249999999990791e+01 -1.146239905649452545e-108
5.684624999999991246e+01 2.565851624339001730e-107
5.705999999999991701e+01 7.402615903825303266e-107
5.727374999999992156e+01 1.416827847522816735e-106
5.748749999999992610e+01 2.146512622093202686e-106
5.770124999999993065e+01 2.634356988480440253e-106
5.791499999999990678e+01 2.428204992600060403e-106
5.812874999999991132e+01 9.814766605628795474e-107
5.834249999999991587e+01 -2.195504786228239208e-106
5.855624999999992042e+01 -7.289475035518772907e-106
5.876999999999992497e+01 -1.386978670453623172e-105
5.898374999999992951e+01 -2.057712491117327534e-105
5.919749999999990564e+01 -2.493679652851178029e-105
5.941124999999991019e+01 -2.345710071102373636e-105
5.962499999999991473e+01 -1.217997722853472833e-105
5.983874999999991928e+01 1.219878157645967797e-105
6.005249999999992383e+01 5.064872885028095271e-105
6.026624999999992838e+01 9.978037168784124486e-105
6.047999999999990450e+01 1.499639810210934056e-104
6.069374999999990905e+01 1.843553344715434150e-104
6.090749999999991360e+01 1.797840597216316418e-104
6.112124999999991815e+01 1.104456717428583116e-104
6.133499999999992269e+01 -4.501022824797033238e-105
6.154874999999992724e+01 -2.931796393862865393e-104
6.176249999999993179e+01 -6.137876283208355032e-104
6.197624999999990791e+01 -9.486639309111502166e-104
6.218999999999991246e+01 -1.196213156685981883e-103
6.240374999999991701e+01 -1.216748421184810415e-103
6.261749999999992156e+01 -8.538489517310045205e-104
6.283124999999992610e+01 2.513521677137664435e-105
6.304499999999993065e+01 1.470627545094154112e-103
6.325874999999990678e+01 3.382198255857329017e-103
6.347249999999991132e+01 5.445634560496535394e-103
6.368624999999991587e+01 7.099469203593411414e-103
6.389999999999992042e+01 7.559781828774943283e-103
6.411374999999992497e+01 5.930996476623275891e-103
6.432749999999992951e+01 1.419863416373179262e-103
6.454124999999990564e+01 -6.352417369059222256e-103
6.475499999999991019e+01 -1.697879253398167465e-102
6.496874999999991473e+01 -2.891614853633209385e-102
6.518249999999991928e+01 -3.927778485044298632e-102
6.539624999999992383e+01 -4.391739550562055410e-102
6.560999999999992838e+01 -3.795075358745614090e-102
6.582374999999990450e+01 -1.681225314514368140e-102
6.603749999999990905e+01 2.216356998332383120e-102
6.625124999999991360e+01 7.781094761585027463e-102
6.646499999999991815e+01 1.432347286157596283e-101
6.667874999999992269e+01 2.045373700957695459e-101
6.689249999999992724e+01 2.409139750183561807e-101
6.710624999999990337e+01 2.268716990865051594e-101
6.731999999999990791e+01 1.371250578013981398e-101
6.753374999999991246e+01 -4.576534376552447343e-102
6.774749999999991701e+01 -3.217184921291226717e-101
6.796124999999992156e+01 -6.631305346754422603e-101
6.817499999999992610e+01 -1.007305835240502351e-100
6.838874999999990223e+01 -1.254912836340015964e-100
6.860249999999990678e+01 -1.278295409728790933e-100
6.881624999999991132e+01 -9.427253660962219204e-101
6.902999999999991587e+01 -1.416291944579478546e-101
6.924374999999992042e+01 1.156659051803351532e-100
6.945749999999992497e+01 2.857751438737435715e-100
6.967124999999990109e+01 4.697994502902167373e-100
6.988499999999990564e+01 6.226013004891221486e-100
7.009874999999991019e+01 6.827952252007025058e-100
7.031249999999991473e+01 5.813224162617599420e-100
7.052624999999991928e+01 2.569468166707434580e-100
7.073999999999992383e+01 -3.219529009440871028e-100
7.095374999999989996e+01 -1.132051371921043014e-99
7.116749999999990450e+01 -2.071462897802889604e-99
7.138124999999990905e+01 -2.945472370227640893e-99
7.159499999999991360e+01 -3.470730636633788039e-99
7.180874999999991815e+01 -3.306763619421616480e-99
7.202249999999992269e+01 -2.120739159208667530e-99
7.223624999999989882e+01 3.147021127774195673e-100
7.244999999999990337e+01 4.000127964823368018e-99
7.266374999999990791e+01 8.585823696881564315e-99
7.287749999999991246e+01 1.327952411515757551e-98
7.309124999999991701e+01 1.682799324964262473e-98
7.330499999999992156e+01 1.761736415499093193e-98
7.351874999999989768e+01 1.392815352370376408e-98
7.373249999999990223e+01 4.357064912313760108e-99
7.394624999999990678e+01 -1.162219045483034479e-98
7.415999999999991132e+01 -3.304029539947642199e-98
7.437374999999991587e+01 -5.689665112147026083e-98
7.458749999999992042e+01 -7.789948885977658920e-98
7.480124999999992497e+01 -8.870118128223528032e-98
7.501499999999990109e+01 -8.082813859779477356e-98
7.522874999999990564e+01 -4.641887399994676756e-98
7.544249999999991019e+01 1.927895102994065766e-98
7.565624999999991473e+01 1.149373163606569094e-97
7.586999999999991928e+01 2.302693470833469743e-97
7.608374999999992383e+01 3.440857201669639677e-97
7.629749999999989996e+01 4.243172674343611426e-97
7.651124999999990450e+01 4.310403156952810490e-97
7.672499999999990905e+01 3.232641518066037725e-97
7.693874999999991360e+01 6.960769515084157049e-98
7.715249999999991815e+01 -3.380083476192027277e-97
7.736624999999992269e+01 -8.698159149806736954e-97
7.757999999999989882e+01 -1.446336002908028996e-96
7.779374999999990337e+01 -1.933858488702772591e-96
7.800749999999990791e+01 -2.152366899879979323e-96
7.822124999999991246e+01 -1.900283563557505159e-96
7.843499999999991701e+01 -9.981064677487978147e-97
7.864874999999992156e+01 6.510675652969128877e-97
7.886249999999989768e+01 2.991798940228696808e-96
7.907624999999990223e+01 5.751528522902053104e-96
7.928999999999990678e+01 8.401008174742043639e-96
7.950374999999991132e+01 1.016386390068100129e-95
7.971749999999991587e+01 1.009829968703576695e-95
7.993124999999992042e+01 7.266291577446684274e-96
8.014499999999989654e+01 9.898131414392479567e-97
8.035874999999990109e+01 -8.830241614216386392e-96
8.057249999999990564e+01 -2.138639186382812064e-95
8.078624999999991019e+01 -3.471239748918178212e-95
8.099999999999991473e+01 -4.561388605557320642e-95
8.121374999999991928e+01 -4.989496645133475439e-95
8.142749999999989541e+01 -4.297228186076974138e-95
8.164124999999989996e+01 -2.091031032018752716e-95
8.185499999999990450e+01 1.818465053300308028e-95
8.206874999999990905e+01 7.260325819349597229e-95
8.228249999999991360e+01 1.356393118017244635e-94
8.249624999999991815e+01 1.948242195690188875e-94
8.270999999999989427e+01 2.323171558139080360e-94
8.292374999999989882e+01 2.269368703659514738e-94
8.313749999999990337e+01 1.581279176743157144e-94
8.335124999999990791e+01 1.178399251530311620e-95
8.356499999999991246e+01 -2.126862308720151790e-94
8.377874999999991701e+01 -4.953103898272358905e-94
8.399249999999989313e+01 -7.904148437232532708e-94
8.420624999999989768e+01 -1.025740578082806658e-93
8.441999999999990223e+01 -1.108203569774296839e-93
8.463374999999990678e+01 -9.381249213372801277e-94
8.484749999999991132e+01 -4.324181035213241891e-94
8.506124999999991587e+01 4.449207751307119031e-94
8.527499999999989200e+01 1.649450996435527270e-93
8.548874999999989654e+01 3.027476877997561381e-93
8.570249999999990109e+01 4.301730235980936626e-93
8.591624999999990564e+01 5.082623836441794944e-93
8.612999999999991019e+01 4.914918042334792594e-93
8.634374999999991473e+01 3.365178034380610357e-93
8.655749999999989086e+01 1.472804854558329939e-94
8.677124999999989541e+01 -4.728210459369528961e-93
8.698499999999989996e+01 -1.080835896945612915e-92
8.719874999999990450e+01 -1.709617229708584513e-92
8.741249999999990905e+01 -2.204164791034431602e-92
8.762624999999991360e+01 -2.367402612333648032e-92
8.783999999999991815e+01 -1.991054522680690084e-92
8.805374999999989427e+01 -9.047996652319186923e-93
8.826749999999989882e+01 9.601611832000839456e-93
8.848124999999990337e+01 3.502699024378561558e-92
8.869499999999990791e+01 6.394075603007584998e-92
8.890874999999991246e+01 9.051410896443821128e-92
8.912249999999991701e+01 1.066460572717691049e-91
8.933624999999989313e+01 1.029598288697512334e-91
8.954999999999989768e+01 7.062324769024432544e-92
8.976374999999990223e+01 3.921699374322948816e-93
8.997749999999990678e+01 -9.671942393750398177e-92
9.019124999999991132e+01 -2.218315862517945061e-91
9.040499999999991587e+01 -3.509347264528922660e-91
9.061874999999989200e+01 -4.524730001634993892e-91
9.083249999999989654e+01 -4.865999065798747147e-91
9.104624999999990109e+01 -4.114758170763510645e-91
9.125999999999990564e+01 -1.931490271595529013e-91
9.147374999999991019e+01 1.818057200884248565e-91
9.168749999999991473e+01 6.928336708980792736e-91
9.190124999999989086e+01 1.274224801168288181e-90
9.211499999999989541e+01 1.810213077489774330e-90
9.232874999999989996e+01 2.140647415687513279e-90
9.254249999999990450e+01 2.080863282398557518e-90
9.275624999999990905e+01 1.457454888952897377e-90
9.296999999999991360e+01 1.583542513617046448e-91
9.318374999999988972e+01 -1.808834678472889689e-90
9.339749999999989427e+01 -4.261323608474618980e-90
9.361124999999989882e+01 -6.804089301461439522e-90
9.382499999999990337e+01 -8.829628212327537267e-90
9.403874999999990791e+01 -9.572122291183909180e-90
9.425249999999991246e+01 -8.228001995034103662e-90
9.446624999999988859e+01 -4.143526685538884562e-90
9.467999999999989313e+01 2.946899599911556371e-90
9.489374999999989768e+01 1.266866346787878798e-89
9.510749999999990223e+01 2.379909388098329205e-89
9.532124999999990678e+01 3.417779407217720764e-89
9.553499999999991132e+01 4.081369729050979742e-89
9.574874999999988745e+01 4.025403054242950094e-89
9.596249999999989200e+01 2.924410454448994084e-89
9.617624999999989654e+01 5.646258891166188005e-90
9.638999999999990109e+01 -3.049447496538164209e-89
9.660374999999990564e+01 -7.594014695966152127e-89
9.681749999999991019e+01 -1.235872050326300586e-88
9.703124999999988631e+01 -1.624587741140150407e-88
9.724499999999989086e+01 -1.786724526869508934e-88
9.745874999999989541e+01 -1.575907492105501118e-88
9.767249999999989996e+01 -8.715767989438218872e-89
9.788624999999990450e+01 3.787311753852608508e-89
9.809999999999990905e+01 2.114739742719254978e-88
9.831374999999988518e+01 4.126580185742095457e-88
9.852749999999988972e+01 6.038576438187437291e-88
9.874124999999989427e+01 7.327188831856705158e-88
9.895499999999989882e+01 7.384222726572117613e-88
9.916874999999990337e+01 5.630099091533252799e-88
9.938249999999990791e+01 1.671607772986591791e-88
9.959624999999988404e+01 -4.515110628224533999e-88
9.980999999999988859e+01 -1.241063648705970556e-87
1.000237499999998931e+02 -2.083490054761648681e-87
1.002374999999998977e+02 -2.794116659028585095e-87
1.004512499999999022e+02 -3.137304026830510195e-87
1.006649999999999068e+02 -2.861875997744904806e-87
1.008787499999998829e+02 -1.756327906363062020e-87
1.010924999999998875e+02 2.810288876354785435e-88
1.013062499999998920e+02 3.167698355049903225e-87
1.015199999999998965e+02 6.574936710435128937e-87
1.017337499999999011e+02 9.898821148034132508e-87
1.019474999999999056e+02 1.228631333036886297e-86
1.021612499999999102e+02 1.273426221104236108e-86
1.023749999999998863e+02 1.026920693303128012e-86
1.025887499999998909e+02 4.199378134327484398e-87
1.028024999999998954e+02 -5.591271910772223307e-87
1.030162499999999000e+02 -1.836076130910930891e-86
1.032299999999999045e+02 -3.231290137826918050e-86
1.034437499999999091e+02 -4.457302940671476558e-86
1.036574999999998852e+02 -5.141667759659953350e-86
1.038712499999998897e+02 -4.880550155547282107e-86
1.040849999999998943e+02 -3.323319347827012256e-86
1.042987499999998988e+02 -2.809514290304969284e-87
1.045124999999999034e+02 4.157863726201722644e-86
1.047262499999999079e+02 9.527849261285073834e-86
1.049399999999998840e+02 1.493697696696416212e-85
1.051537499999998886e+02 1.909815399444675424e-85
1.053674999999998931e+02 2.047021017977984852e-85
1.055812499999998977e+02 1.752083103087256899e-85
1.057949999999999022e+02 9.099892385807464134e-86
1.060087499999999068e+02 -5.120020971937698922e-86
1.062224999999998829e+02 -2.421376096795273546e-85
1.064362499999998875e+02 -4.569270078917971154e-85
1.066499999999998920e+02 -6.543809727552340247e-85
1.068637499999998965e+02 -7.799800770027398784e-85
1.070774999999999011e+02 -7.732959844861877952e-85
1.072912499999999056e+02 -5.799577196191917639e-85
1.075049999999998818e+02 -1.671944462078201854e-85
1.077187499999998863e+02 4.592760039253695030e-85
1.079324999999998909e+02 1.240497414380642003e-84
1.081462499999998954e+02 2.056085707716806029e-84
1.083599999999999000e+02 2.727283936283482587e-84
1.085737499999999045e+02 3.035192674614315932e-84
1.087874999999998806e+02 2.756099405741700100e-84
1.090012499999998852e+02 1.712535549660568426e-84
1.092149999999998897e+02 -1.656299137880654794e-85
1.094287499999998943e+02 -2.780478564001066541e-84
1.096424999999998988e+02 -5.820298339879077803e-84
1.098562499999999034e+02 -8.745774081499190125e-84
1.100699999999998795e+02 -1.082437841210690514e-83
1.102837499999998840e+02 -1.122436326257715927e-83
1.104974999999998886e+02 -9.170204065932355758e-84
1.107112499999998931e+02 -4.147512078873007421e-84
1.109249999999998977e+02 3.871113353857299299e-84
1.111387499999999022e+02 1.422420785854127971e-83
1.113524999999998784e+02 2.544071538011144281e-83
1.115662499999998829e+02 3.526115343924365225e-83
1.117799999999998875e+02 4.085198507088998205e-83
1.119937499999998920e+02 3.923919446271587602e-83
1.122074999999998965e+02 2.794561075573991560e-83
1.124212499999999011e+02 5.762451434021660799e-84
1.126349999999998772e+02 -2.647323041494602103e-83
1.128487499999998818e+02 -6.527488963429065348e-83
1.130624999999998863e+02 -1.042852119431828079e-82
1.132762499999998909e+02 -1.346366486076151454e-82
1.134899999999998954e+02 -1.460334778327906250e-82
1.137037499999999000e+02 -1.285795530318805192e-82
1.139174999999998761e+02 -7.521051299628701528e-83
1.141312499999998806e+02 1.560580948011778145e-83
1.143449999999998852e+02 1.374268159376701271e-82
1.145587499999998897e+02 2.743140527872810441e-82
1.147724999999998943e+02 4.009305385810720287e-82
1.149862499999998988e+02 4.848355205452599837e-82
1.151999999999998749e+02 4.912581501061764013e-82
1.154137499999998795e+02 3.901582897596249559e-82
1.156274999999998840e+02 1.647807857177774375e-82
1.158412499999998886e+02 -1.797257719930296649e-82
1.160549999999998931e+02 -6.095855507077510282e-82
1.162687499999998977e+02 -1.059789950108480761e-81
1.164824999999999022e+02 -1.437669497556068342e-81
1.166962499999998784e+02 -1.633999522230035617e-81
1.169099999999998829e+02 -1.541727932448418959e-81
1.171237499999998875e+02 -1.080681635621317517e-81
1.173374999999998920e+02 -2.246606970344472147e-82
1.175512499999998965e+02 9.744468793156105435e-82
1.177649999999999011e+02 2.372021350794219415e-81
1.179787499999998772e+02 3.732013102664238552e-81
1.181924999999998818e+02 4.749124371320224556e-81
1.184062499999998863e+02 5.093597472929341414e-81
1.186199999999998909e+02 4.475674636358179066e-81
1.188337499999998954e+02 2.721318229867634288e-81
1.190474999999999000e+02 -1.544588049112986911e-82
1.192612499999998761e+02 -3.893961885172074202e-81
1.194749999999998806e+02 -7.980879414373992060e-81
1.196887499999998852e+02 -1.167664532651479862e-80
1.199024999999998897e+02 -1.411578187776574503e-80
1.201162499999998943e+02 -1.445501486566863505e-80
1.203299999999998988e+02 -1.205684051136869097e-80
1.205437499999998749e+02 -6.674769087840708663e-81
1.207574999999998795e+02 1.401691083184537470e-81
1.209712499999998840e+02 1.128544813049597421e-80
1.211849999999998886e+02 2.154730777682770112e-80
1.213987499999998931e+02 3.040135703976735598e-80
1.216124999999998977e+02 3.600312625176419670e-80
1.218262499999998738e+02 3.680986981841279376e-80
1.220399999999998784e+02 3.192366076929626445e-80
1.222537499999998829e+02 2.132420966159102193e-80
1.224674999999998875e+02 5.908477985507245858e-81
1.226812499999998920e+02 -1.270661946533472757e-80
1.228949999999998965e+02 -3.259580776874121428e-80
1.231087499999998727e+02 -5.204663216570045692e-80
1.233224999999998772e+02 -7.000870225321621029e-80
1.235362499999998818e+02 -8.624625749459213918e-80
1.237499999999998863e+02 -1.009894966026805057e-79
1.239637499999998909e+02 -1.139861913062592307e-79
1.241774999999998954e+02 -1.230517027964504729e-79
1.243912499999998715e+02 -1.224795462021579129e-79
1.246049999999998761e+02 -1.019494258789764694e-79
1.248187499999998806e+02 -4.676666309615580435e-80
1.250324999999998852e+02 5.972184439150222059e-80
1.252462499999998897e+02 2.309677353466489425e-79
1.254599999999998943e+02 4.693804764302954876e-79