2.024999999999579359e-01 -6.580727742189526158e-148
4.162499999999482725e-01 -4.283303686953573005e-148
6.299999999999528200e-01 3.112660880073740888e-148
8.437499999999573674e-01 1.807370425381655562e-147
1.057499999999947704e+00 4.218581633833565897e-147
1.271249999999952252e+00 7.426805595163753668e-147
1.484999999999956799e+00 1.076228857365961873e-146
1.698749999999947136e+00 1.267868282783852011e-146
1.912499999999951683e+00 1.048288711742635441e-146
2.126249999999956231e+00 3.206470351395308799e-148
2.339999999999946567e+00 -2.227252072703670199e-146
2.553749999999951115e+00 -6.086415930321693308e-146
2.767499999999955662e+00 -1.152880354739368798e-145
2.981249999999945999e+00 -1.773257589256436793e-145
3.194999999999950546e+00 -2.253061912861518439e-145
3.408749999999955094e+00 -2.190111834316853766e-145
3.622499999999945430e+00 -9.772281251975808846e-146
3.836249999999949978e+00 2.140269694257701628e-145
4.049999999999954525e+00 7.869503144196752652e-145
4.263749999999944862e+00 1.647400261914098223e-144
4.477499999999949409e+00 2.713736609859056252e-144
4.691249999999953957e+00 3.711700448045781137e-144
4.904999999999944293e+00 4.085182782728422782e-144
5.118749999999948841e+00 2.939321223527392084e-144
5.332499999999953388e+00 -9.209869483403759794e-145
5.546249999999943725e+00 -8.768243525386708789e-144
5.759999999999948272e+00 -2.144305738119216516e-143
5.973749999999952820e+00 -3.847560275754396652e-143
6.187499999999943157e+00 -5.683369110737704071e-143
6.401249999999947704e+00 -6.946034603543942860e-143
6.614999999999952252e+00 -6.403974486265303844e-143
6.828749999999942588e+00 -2.280911154948896861e-143
7.042499999999947136e+00 7.534348716557454348e-143
7.256249999999951683e+00 2.489321639747845155e-142
7.469999999999942020e+00 5.025423992003451243e-142
7.683749999999946567e+00 8.093320282244543788e-142
7.897499999999951115e+00 1.088500200051129737e-141
8.111249999999941451e+00 1.182365200421143020e-141
8.324999999999945999e+00 8.429393618676501428e-142
8.538749999999950546e+00 -2.555648554066248687e-142
8.752499999999940883e+00 -2.455522801744724821e-141
8.966249999999945430e+00 -5.980117640227966535e-141
9.179999999999949978e+00 -1.070221932347070200e-140
9.393749999999940314e+00 -1.581706708117353271e-140
9.607499999999944862e+00 -1.945995760109134003e-140
9.821249999999949409e+00 -1.837976551682717828e-140
1.003499999999993975e+01 -7.875358580480428852e-141
1.024874999999994429e+01 1.768911064126740282e-140
1.046249999999994884e+01 6.338737384991708105e-140
1.067624999999993918e+01 1.308488924930508835e-139
1.088999999999994373e+01 2.137664716972152222e-139
1.110374999999994827e+01 2.920447384449190282e-139
1.131749999999993861e+01 3.257253894243379933e-139
1.153124999999994316e+01 2.511680727193357308e-139
1.174499999999994770e+01 -1.633753950710508292e-140
1.195874999999993804e+01 -5.676828226107123717e-139
1.217249999999994259e+01 -1.466071896406080810e-138
1.238624999999994714e+01 -2.688708232579229948e-138
1.259999999999993747e+01 -4.043630988459649582e-138
1.281374999999994202e+01 -5.072059279968628766e-138
1.302749999999994657e+01 -4.964396584666438219e-138
1.324124999999995111e+01 -2.542433642923840054e-138
1.345499999999994145e+01 3.612665736358122896e-138
1.366874999999994600e+01 1.478673031337594715e-137
1.388249999999995055e+01 3.141646729384138756e-137
1.409624999999994088e+01 5.198417760885115264e-137
1.430999999999994543e+01 7.160177687700713876e-137
1.452374999999994998e+01 8.058647684024698536e-137
1.473749999999994031e+01 6.365711745467687641e-137
1.495124999999994486e+01 7.710879132191439949e-139
1.516499999999994941e+01 -1.290315878238724098e-136
1.537874999999993975e+01 -3.393118066290330847e-136
1.559249999999994429e+01 -6.224332939683991291e-136
1.580624999999994884e+01 -9.306621736164399214e-136
1.601999999999993918e+01 -1.155218152719353772e-135
1.623374999999994373e+01 -1.110434494274706079e-135
1.644749999999994827e+01 -5.353636051091246251e-136
1.666124999999993861e+01 8.697795885673866642e-136
1.687499999999994316e+01 3.352398420877735906e-135
1.708874999999994770e+01 6.945261582774190534e-135
1.730249999999993804e+01 1.123161237484058861e-134
1.751624999999994259e+01 1.506637204101700203e-134
1.772999999999994714e+01 1.633072186716427160e-134
1.794374999999993747e+01 1.186115341793962806e-134
1.815749999999994202e+01 -2.239553845963242244e-135
1.837124999999994657e+01 -2.965958463584626409e-134
1.858499999999993690e+01 -7.207789107902389234e-134
1.879874999999994145e+01 -1.264273761344330609e-133
1.901249999999994600e+01 -1.814688293393793880e-133
1.922624999999993634e+01 -2.144658339649835094e-133
1.943999999999994088e+01 -1.894880361173398421e-133
1.965374999999994543e+01 -5.967403430122058736e-134
1.986749999999993577e+01 2.236251810267794637e-133
2.008124999999994031e+01 6.919873834072250273e-133
2.029499999999994486e+01 1.329889910146072874e-132
2.050874999999993520e+01 2.035388942675327647e-132
2.072249999999993975e+01 2.579133815472474903e-132
2.093624999999994429e+01 2.577377744611731983e-132
2.114999999999993463e+01 1.503751284780965251e-132
2.136374999999993918e+01 -1.228083223414784130e-132
2.157749999999994373e+01 -6.077928830717621225e-132
2.179124999999993406e+01 -1.306787423613921940e-131
2.200499999999993861e+01 -2.135785610537159854e-131
2.221874999999994316e+01 -2.877710797971545704e-131
2.243249999999993349e+01 -3.146359934677721426e-131
2.264624999999993804e+01 -2.386082063916246367e-131
2.285999999999994259e+01 5.941248439552145911e-133
2.307374999999993292e+01 4.773167269573503718e-131
2.328749999999993747e+01 1.195990590648135727e-130
2.350124999999994202e+01 2.101315905971162539e-130
2.371499999999993236e+01 3.001303211083312668e-130
2.392874999999993690e+01 3.529443519010411895e-130
2.414249999999994145e+01 3.132411231383058506e-130
2.435624999999993179e+01 1.121606275815177725e-130
2.456999999999993634e+01 -3.174433432818809973e-130
2.478374999999994088e+01 -1.012685189864653368e-129
2.499749999999993122e+01 -1.938808900275762265e-129
2.521124999999993577e+01 -2.938372534696562638e-129
2.542499999999994031e+01 -3.683601333857516037e-129
2.563874999999993065e+01 -3.653556660464461969e-129
2.585249999999993520e+01 -2.167076968605661245e-129
2.606624999999993975e+01 1.492277831671721221e-129
2.627999999999994429e+01 7.827396257065171886e-129
2.649374999999993463e+01 1.674364270287001142e-128
2.670749999999993918e+01 2.706140959550860072e-128
2.692124999999994373e+01 3.602458008295364614e-128
2.713499999999993406e+01 3.899178835055682169e-128
2.734874999999993861e+01 2.958767887447980246e-128
2.756249999999994316e+01 6.519888546537524898e-130
2.777624999999993349e+01 -5.369342066219258056e-128
2.798999999999993804e+01 -1.346951115022489352e-127
2.820374999999994259e+01 -2.345223128491866480e-127
2.841749999999993292e+01 -3.314868350505370560e-127
2.863124999999993747e+01 -3.864615374654644098e-127
2.884499999999994202e+01 -3.428666205514315147e-127
2.905874999999993236e+01 -1.332325949743301494e-127
2.927249999999993690e+01 3.046139003865510097e-127
2.948624999999994145e+01 9.997739048413785194e-127
2.969999999999993179e+01 1.909654233166224395e-126
2.991374999999993634e+01 2.875920634355505082e-126
3.012749999999994088e+01 3.586953244496637343e-126
3.034124999999993122e+01 3.566142726073647599e-126
3.055499999999993577e+01 2.211664645575318369e-126
3.076874999999994031e+01 -1.084685885641680266e-126
3.098249999999993065e+01 -6.718685388194541133e-126
3.119624999999993520e+01 -1.455378340282579675e-125
3.140999999999993975e+01 -2.353524786387810391e-125
3.162374999999993008e+01 -3.132613284673052551e-125
3.183749999999993463e+01 -3.411577663877849286e-125
3.205124999999993918e+01 -2.680999854444159709e-125
3.226499999999992951e+01 -3.841271612706061942e-126
3.247874999999993406e+01 3.919707369558349749e-125
3.269249999999993861e+01 1.030240366094677140e-124
3.290624999999992895e+01 1.814509092982985998e-124
3.311999999999993349e+01 2.580758346479587970e-124
3.333374999999993804e+01 3.040132879143496154e-124
3.354749999999992838e+01 2.782930066409054687e-124
3.376124999999993292e+01 1.328956296010227926e-124
3.397499999999993747e+01 -1.757175444583600521e-124
3.418874999999992781e+01 -6.675819935529019960e-124
3.440249999999993236e+01 -1.313600637120285216e-123
3.461624999999993690e+01 -2.007231129256087484e-123
3.482999999999992724e+01 -2.541418317085567989e-123
3.504374999999993179e+01 -2.603002728893935379e-123
3.525749999999993634e+01 -1.800143783151682783e-123
3.547124999999992667e+01 2.613223063758670525e-124
3.568499999999993122e+01 3.841595419570537380e-123
3.589874999999993577e+01 8.872264971117912946e-123
3.611249999999992610e+01 1.472650451079534133e-122
3.632624999999993065e+01 2.000734200545000847e-122
3.653999999999993520e+01 2.244157145133646762e-122
3.675374999999992554e+01 1.899678621098677863e-122
3.696749999999993008e+01 6.350758578133357731e-123
3.718124999999993463e+01 -1.818183202183279928e-122
3.739499999999992497e+01 -5.523919089255058885e-122
3.760874999999992951e+01 -1.016398599934430668e-121
3.782249999999993406e+01 -1.485850149131612012e-121
3.803624999999993861e+01 -1.804345100043417652e-121
3.824999999999994316e+01 -1.749069170091572011e-121
3.846374999999991928e+01 -1.057006514426529479e-121
3.867749999999992383e+01 5.155233592288666437e-122
3.889124999999992838e+01 3.095497735521314959e-121
3.910499999999993292e+01 6.563046800930979315e-121
3.931874999999993747e+01 1.040848582965489277e-120
3.953249999999994202e+01 1.361555837034970928e-120
3.974624999999991815e+01 1.462977287856776613e-120
3.995999999999992269e+01 1.148514641991999050e-120
4.017374999999992724e+01 2.162835535256908536e-121
4.038749999999993179e+01 -1.476941242209335343e-120
4.060124999999993634e+01 -3.924698045990049939e-120
4.081499999999994088e+01 -6.863562174738113881e-120
4.102874999999991701e+01 -9.673773664672689959e-120
4.124249999999992156e+01 -1.132675442562361653e-119
4.145624999999992610e+01 -1.043096334688980792e-119
4.166999999999993065e+01 -5.431750363273350671e-120
4.188374999999993520e+01 4.990486564185739895e-120
4.209749999999993975e+01 2.131379664908143343e-119
4.231124999999991587e+01 4.241184131191149285e-119
4.252499999999992042e+01 6.477572251714007753e-119
4.273874999999992497e+01 8.196687579457967724e-119
4.295249999999992951e+01 8.464592064872153207e-119
4.316624999999993406e+01 6.157642570573250892e-119
4.337999999999993861e+01 1.963019775417477383e-120
4.359374999999991473e+01 -1.007025258903170374e-118
4.380749999999991928e+01 -2.434869500453592616e-118
4.402124999999992383e+01 -4.083216560131930793e-118
4.423499999999992838e+01 -5.572524185188996635e-118
4.444874999999993292e+01 -6.308418880441367885e-118
4.466249999999993747e+01 -5.524426793458412947e-118
4.487624999999991360e+01 -2.410328099604280970e-118
4.508999999999991815e+01 3.656158705606814936e-118
4.530374999999992269e+01 1.277798052129054427e-117
4.551749999999992724e+01 2.414607901062144755e-117
4.573124999999993179e+01 3.567013446945210462e-117
4.594499999999993634e+01 4.376790860727140145e-117
4.615874999999991246e+01 4.348965324389763135e-117
4.637249999999991701e+01 2.916650832696673498e-117
4.658624999999992156e+01 -4.268136573289047790e-118
4.679999999999992610e+01 -5.925029340786916714e-117
4.701374999999993065e+01 -1.330196184759483890e-116
4.722749999999993520e+01 -2.149723812585326466e-116
4.744124999999993975e+01 -2.847226195367816870e-116
4.765499999999991587e+01 -3.119656336897583421e-116
4.786874999999992042e+01 -2.593974566990695774e-116
4.808249999999992497e+01 -8.981043716186934951e-117
4.829624999999992951e+01 2.220937998048092665e-116
4.850999999999993406e+01 6.737683714410271029e-116
4.872374999999993861e+01 1.217056616564332582e-115
4.893749999999991473e+01 1.742991522703648621e-115
4.915124999999991928e+01 2.075644883758870307e-115
4.936499999999992383e+01 1.982935095579773052e-115
4.957874999999992838e+01 1.212166194792075569e-115
4.979249999999993292e+01 -4.446025132802335289e-116
5.000624999999993747e+01 -3.056281284815276506e-115
5.021999999999991360e+01 -6.440157386341918984e-115
5.043374999999991815e+01 -1.005420408896386298e-114
5.064749999999992269e+01 -1.293107006506544396e-114
5.086124999999992724e+01 -1.370136975165717339e-114
5.107499999999993179e+01 -1.075687181811452368e-114
5.128874999999993634e+01 -2.593298587719762481e-115
5.150249999999991246e+01 1.165780666892580055e-114
5.171624999999991701e+01 3.155130690597252703e-114
5.192999999999992156e+01 5.462086747987125637e-114
5.214374999999992610e+01 7.584108960931936720e-114
5.235749999999993065e+01 8.753384085563895925e-114
5.257124999999993520e+01 8.003083689846943798e-114
5.278499999999991132e+01 4.336952029629568184e-114
5.299874999999991587e+01 -2.984346140491964652e-114
5.321249999999992042e+01 -1.405413037721400803e-113
5.342624999999992497e+01 -2.788231680154772659e-113
5.363999999999992951e+01 -4.201334312721174347e-113
5.385374999999993406e+01 -5.235119926539882944e-113
5.406749999999991019e+01 -5.337514944492966670e-113
5.428124999999991473e+01 -3.892510216230792230e-113
5.449499999999991928e+01 -3.673212673655208685e-114
5.470874999999992383e+01 5.473866045604277464e-113
5.492249999999992838e+01 1.331319989846398416e-112
5.513624999999993292e+01 2.203094379621726879e-112
5.534999999999990905e+01 2.954648388739642036e-112
5.556374999999991360e+01 3.285214860375177436e-112
5.577749999999991815e+01 2.834879917574546455e-112
5.599124999999992269e+01 1.256764815740915490e-112
5.620499999999992724e+01 -1.670253194775199398e-112
5.641874999999993179e+01 -5.897491593276425122e-112
5.663249999999990791e+01 -1.095545336162626721e-111
5.684624999999991246e+01 -1.583727385458651898e-111
5.705999999999991701e+01 -1.897295085475389505e-111
5.727374999999992156e+01 -1.835762440382944169e-111
5.748749999999992610e+01 -1.188917137782339533e-111
5.770124999999993065e+01 2.059237322936178554e-112
5.791499999999990678e+01 2.386137199414232126e-111
5.812874999999991132e+01 5.176479438606704925e-111
5.834249999999991587e+01 8.112759708667261070e-111
5.855624999999992042e+01 1.040615747021383741e-110
5.876999999999992497e+01 1.098353131379915031e-110
5.898374999999992951e+01 8.637532800655457632e-111
5.919749999999990564e+01 2.307669576805064311e-111
5.941124999999991019e+01 -8.513231595127902932e-111
5.962499999999991473e+01 -2.329382609240478321e-110
5.983874999999991928e+01 -3.999879608168708833e-110
6.005249999999992383e+01 -5.479494293383169807e-110
6.026624999999992838e+01 -6.212029865943184086e-110
6.047999999999990450e+01 -5.531357674422775299e-110
6.069374999999990905e+01 -2.795125059443492504e-110
6.090749999999991360e+01 2.408482472311360529e-110
6.112124999999991815e+01 9.999218085966428212e-110
6.133499999999992269e+01 1.913420436399998954e-109
6.154874999999992724e+01 2.800413914653658648e-109
6.176249999999993179e+01 3.379744651092010430e-109
6.197624999999990791e+01 3.294367307654059388e-109
6.218999999999991246e+01 2.173020015253596277e-109
6.240374999999991701e+01 -2.669426835303350492e-110
6.261749999999992156e+01 -4.081785090815669579e-109
6.283124999999992610e+01 -8.949127628140826618e-109
6.304499999999993065e+01 -1.403818446519124670e-108
6.325874999999990678e+01 -1.795487193512407350e-108
6.347249999999991132e+01 -1.882302421618593796e-108
6.368624999999991587e+01 -1.455877904605791488e-108
6.389999999999992042e+01 -3.371454377937764343e-109
6.411374999999992497e+01 1.552364523394369363e-108
6.432749999999992951e+01 4.106716657923933023e-108
6.454124999999990564e+01 6.956832753216521394e-108
6.475499999999991019e+01 9.423416850081501778e-108
6.496874999999991473e+01 1.053457678606736133e-107
6.518249999999991928e+01 9.141606473848057434e-108
6.539624999999992383e+01 4.157110797827163730e-108
6.560999999999992838e+01 -5.082366419595970666e-108
6.582374999999990450e+01 -1.836285595658582543e-107
6.603749999999990905e+01 -3.412943233631384130e-107
6.625124999999991360e+01 -4.914476694230951528e-107
6.646499999999991815e+01 -5.844462052933944091e-107
6.667874999999992269e+01 -5.578151767132193838e-107
6.689249999999992724e+01 -3.471737724200458814e-107
6.710624999999990337e+01 9.570328041959263687e-108
6.731999999999990791e+01 7.787696599248669476e-107
6.753374999999991246e+01 1.643054870498779115e-106
6.774749999999991701e+01 2.539846067033372345e-106
6.796124999999992156e+01 3.220752840804104169e-106
6.817499999999992610e+01 3.351315749804493504e-106
6.838874999999990223e+01 2.558260829327362799e-106
6.860249999999990678e+01 5.166476052546724664e-107
6.881624999999991132e+01 -2.924822302052975571e-106
6.902999999999991587e+01 -7.594293195517235179e-106
6.924374999999992042e+01 -1.285241865976201410e-105
6.945749999999992497e+01 -1.749860386147983430e-105
6.967124999999990109e+01 -1.978555810660219346e-105
6.988499999999990564e+01 -1.760275166108360241e-105
7.009874999999991019e+01 -8.876335759011142522e-106
7.031249999999991473e+01 7.801482313287211306e-106
7.052624999999991928e+01 3.235946137511758839e-105
7.073999999999992383e+01 6.237709160119715376e-105
7.095374999999989996e+01 9.237519368089623827e-105
7.116749999999990450e+01 1.135686962483920484e-104
7.138124999999990905e+01 1.144287843424344837e-104
7.159499999999991360e+01 8.237486046183180304e-105
7.180874999999991815e+01 6.782296270799537316e-106
7.202249999999992269e+01 -1.167752089582957360e-104
7.223624999999989882e+01 -2.815315496040233834e-104
7.244999999999990337e+01 -4.647662117291003330e-104
7.266374999999990791e+01 -6.247740893171325866e-104
7.287749999999991246e+01 -7.014601761072825677e-104
7.309124999999991701e+01 -6.225394733066198996e-104
7.330499999999992156e+01 -3.168996755011926759e-104
7.351874999999989768e+01 2.644278179826267268e-104
7.373249999999990223e+01 1.121133769721999617e-103
7.394624999999990678e+01 2.174371171867964355e-103
7.415999999999991132e+01 3.242381001921152342e-103
7.437374999999991587e+01 4.030759253651811089e-103
7.458749999999992042e+01 4.148731543277264538e-103
7.480124999999992497e+01 3.162168033829276981e-103
7.501499999999990109e+01 6.900647859051160357e-104
7.522874999999990564e+01 -3.457004989997345722e-103
7.544249999999991019e+01 -9.110562726135999981e-103
7.565624999999991473e+01 -1.558011631925309678e-102
7.586999999999991928e+01 -2.153831072681632616e-102
7.608374999999992383e+01 -2.501609995713182999e-102
7.629749999999989996e+01 -2.357354675505835761e-102
7.651124999999990450e+01 -1.470134779912274570e-102
7.672499999999990905e+01 3.523641081435761827e-103
7.693874999999991360e+01 3.156226323377540567e-102
7.715249999999991815e+01 6.742988926952992923e-102
7.736624999999992269e+01 1.058150482819474331e-101
7.757999999999989882e+01 1.376014837027714121e-101
7.779374999999990337e+01 1.501587254226743004e-101
7.800749999999990791e+01 1.287662119271407779e-101
7.822124999999991246e+01 5.943600179684975635e-102
7.843499999999991701e+01 -6.683074251747015756e-102
7.864874999999992156e+01 -2.486896287578814166e-101
7.886249999999989768e+01 -4.688298447297639314e-101
7.907624999999990223e+01 -6.894592115805044851e-101
7.928999999999990678e+01 -8.507627431177637030e-101
7.950374999999991132e+01 -8.744600389988818348e-101
7.971749999999991587e+01 -6.744187633207212396e-101
7.993124999999992042e+01 -1.754873117480173675e-101
8.014499999999989654e+01 6.598512063289761434e-101
8.035874999999990109e+01 1.799742575895894592e-100
8.057249999999990564e+01 3.111812774109349936e-100
8.078624999999991019e+01 4.341342017431412893e-100
8.099999999999991473e+01 5.109945205053018180e-100
8.121374999999991928e+01 4.946767269949650234e-100
8.142749999999989541e+01 3.362264774885729944e-100
8.164124999999989996e+01 -3.109110039038874139e-102
8.185499999999990450e+01 -5.356990537659480414e-100
8.206874999999990905e+01 -1.229243278160933394e-99
8.228249999999991360e+01 -1.990089519196388866e-99
8.249624999999991815e+01 -2.653515207310487663e-99
8.270999999999989427e+01 -2.987492709196340035e-99
8.292374999999989882e+01 -2.716519372039685103e-99
8.313749999999990337e+01 -1.570436271330845703e-99
8.335124999999990791e+01 6.407381435995127247e-100
8.356499999999991246e+01 3.931283028588502752e-99
8.377874999999991701e+01 8.037360375563188808e-99
8.399249999999989313e+01 1.233104808665748584e-98
8.420624999999989768e+01 1.578280518434765507e-98
8.441999999999990223e+01 1.700931913389656057e-98
8.463374999999990678e+01 1.444160807682642185e-98
8.484749999999991132e+01 6.635776956120095016e-99
8.506124999999991587e+01 -7.276494117117802159e-99
8.527499999999989200e+01 -2.703921513849971274e-98
8.548874999999989654e+01 -5.071550390979449436e-98
8.570249999999990109e+01 -7.426558341977133441e-98
8.591624999999990564e+01 -9.144488809759674940e-98
8.612999999999991019e+01 -9.422567851800037458e-98
8.634374999999991473e+01 -7.391961149372213986e-98
8.655749999999989086e+01 -2.309172534316981087e-98
8.677124999999989541e+01 6.180224337794546251e-98
8.698499999999989996e+01 1.773507838037596391e-97
8.719874999999990450e+01 3.102635467615205531e-97
8.741249999999990905e+01 4.354342776289779863e-97
8.762624999999991360e+01 5.160357889375743724e-97
8.783999999999991815e+01 5.067304510119538327e-97
8.805374999999989427e+01 3.608530786690409618e-97
8.826749999999989882e+01 4.184853876019342590e-98
8.848124999999990337e+01 -4.617139991911534941e-97
8.869499999999990791e+01 -1.119531454775163342e-96
8.890874999999991246e+01 -1.844832723278502535e-96
8.912249999999991701e+01 -2.486376888916732379e-96
8.933624999999989313e+01 -2.832903790464987093e-96
8.954999999999989768e+01 -2.635589523240980178e-96
8.976374999999990223e+01 -1.652350688693198295e-96
8.997749999999990678e+01 2.857897613914155897e-97
9.019124999999991132e+01 3.191696697243778665e-96
9.040499999999991587e+01 6.835136430169295827e-96
9.061874999999989200e+01 1.067227622210004098e-95
9.083249999999989654e+01 1.381877668805886731e-95
9.104624999999990109e+01 1.509670198985986362e-95
9.125999999999990564e+01 1.318237828879761264e-95
9.147374999999991019e+01 6.870528516478858543e-96
9.168749999999991473e+01 -4.552043689004122003e-96
9.190124999999989086e+01 -2.086194123266873868e-95
9.211499999999989541e+01 -4.046140667892893524e-95
9.232874999999989996e+01 -6.006409712443196329e-95
9.254249999999990450e+01 -7.465076758819382162e-95
9.275624999999990905e+01 -7.784837206235800612e-95
9.296999999999991360e+01 -6.285715274127590168e-95
9.318374999999988972e+01 -2.397384874622413483e-95
9.339749999999989427e+01 4.136981698922535695e-95
9.361124999999989882e+01 1.303097071450570014e-94
9.382499999999990337e+01 2.324499776938058658e-94
9.403874999999990791e+01 3.286060718187982285e-94
9.425249999999991246e+01 3.911518695995748976e-94
9.446624999999988859e+01 3.867146536544902856e-94
9.467999999999989313e+01 2.817415756790905110e-94
9.489374999999989768e+01 5.099202166545459693e-95
9.510749999999990223e+01 -3.117157313611106304e-94
9.532124999999990678e+01 -7.821024819955762300e-94
9.553499999999991132e+01 -1.295961975971850853e-93
9.574874999999988745e+01 -1.745056099520677375e-93
9.596249999999989200e+01 -1.982175652286317633e-93
9.617624999999989654e+01 -1.838762981791126667e-93
9.638999999999990109e+01 -1.157000451795425698e-93
9.660374999999990564e+01 1.644767650831569695e-94
9.681749999999991019e+01 2.116014301352345598e-93
9.703124999999988631e+01 4.522991061097903154e-93
9.724499999999989086e+01 7.006616734567123619e-93
9.745874999999989541e+01 8.976981377713415257e-93
9.767249999999989996e+01 9.676454742343688019e-93
9.788624999999990450e+01 8.287769179015063234e-93
9.809999999999990905e+01 4.111771440093034104e-93
9.831374999999988518e+01 -3.195512816757183244e-93
9.852749999999988972e+01 -1.335725923264319036e-92
9.874124999999989427e+01 -2.523517900791445815e-92
9.895499999999989882e+01 -3.668774327616385079e-92
9.916874999999990337e+01 -4.461291470848672405e-92
9.938249999999990791e+01 -4.525656034973788430e-92
9.959624999999988404e+01 -3.484024387260900072e-92
9.980999999999988859e+01 -1.050716816027624239e-92
1.000237499999998931e+02 2.849688631683870847e-92
1.002374999999998977e+02 7.959207309080069180e-92
1.004512499999999022e+02 1.358711367680238312e-91
1.006649999999999068e+02 1.857148199873713669e-91
1.008787499999998829e+02 2.134141258296882888e-91
1.010924999999998875e+02 2.011367259947251517e-91
1.013062499999998920e+02 1.323977572618262742e-91
1.015199999999998965e+02 -3.109806611887852205e-93
1.017337499999999011e+02 -2.038877428485163340e-91
1.019474999999999056e+02 -4.512492315182093499e-91
1.021612499999999102e+02 -7.056672485852916944e-91
1.023749999999998863e+02 -9.066269153135608148e-91
1.025887499999998909e+02 -9.777245767153267936e-91
1.028024999999998954e+02 -8.382675205440317908e-91
1.030162499999999000e+02 -4.215816253343677266e-91
1.032299999999999045e+02 3.013732007909805756e-91
1.034437499999999091e+02 1.296508826866848161e-90
1.036574999999998852e+02 2.444800419156150549e-90
1.038712499999998897e+02 3.531475470516601442e-90
1.040849999999998943e+02 4.254237233759700749e-90
1.042987499999998988e+02 4.257584260931151735e-90
1.045124999999999034e+02 3.197043228784349006e-90
1.047262499999999079e+02 8.313569491056667452e-91
1.049399999999998840e+02 -2.867375453994530208e-90
1.051537499999998886e+02 -7.604956320983932837e-90
1.053674999999998931e+02 -1.268598057238211676e-89
1.055812499999998977e+02 -1.699852968714432994e-89
1.057949999999999022e+02 -1.909689838495238548e-89
1.060087499999999068e+02 -1.740795679029133833e-89
1.062224999999998829e+02 -1.056750521218753391e-89
1.064362499999998875e+02 2.137019666687414027e-90
1.066499999999998920e+02 2.027932827079383207e-89
1.068637499999998965e+02 4.186493677035293905e-89
1.070774999999999011e+02 6.309574613087538980e-89
1.072912499999999056e+02 7.847952805710040293e-89
1.075049999999998818e+02 8.141888689598157860e-89
1.077187499999998863e+02 6.535589858631574133e-89
1.079324999999998909e+02 2.544344074323214456e-89
1.081462499999998954e+02 -3.943298423028356165e-89
1.083599999999999000e+02 -1.246305972559188505e-88
1.085737499999999045e+02 -2.182329501935418597e-88
1.087874999999998806e+02 -3.006628892114670594e-88
1.090012499999998852e+02 -3.460495836124884190e-88
1.092149999999998897e+02 -3.258209459437157879e-88
1.094287499999998943e+02 -2.146481957964606071e-88
1.096424999999998988e+02 1.667840410580122685e-90
1.098562499999999034e+02 3.174618190153173722e-88
1.100699999999998795e+02 6.994357801776724177e-88
1.102837499999998840e+02 1.082269885982238353e-87
1.104974999999998886e+02 1.370285012755831957e-87
1.107112499999998931e+02 1.447533875047981643e-87
1.109249999999998977e+02 1.197661234271759612e-87
1.111387499999999022e+02 5.330193062306598209e-88
1.113524999999998784e+02 -5.700548818769826994e-88
1.115662499999998829e+02 -2.035876920297136481e-87
1.117799999999998875e+02 -3.662860306174916791e-87
1.119937499999998920e+02 -5.116520333505723726e-87
1.122074999999998965e+02 -5.952774763803009112e-87
1.124212499999999011e+02 -5.679541933200922559e-87
1.126349999999998772e+02 -3.858619966148601466e-87
1.128487499999998818e+02 -2.405585148262322311e-88
1.130624999999998863e+02 5.086431697331169816e-87
1.132762499999998909e+02 1.156468418784084033e-86
1.134899999999998954e+02 1.809343286637989904e-86
1.137037499999999000e+02 2.305836712851089226e-86
1.139174999999998761e+02 2.450388756074085590e-86
1.141312499999998806e+02 2.046951683696802344e-86
1.143449999999998852e+02 9.480260273676062415e-87
1.145587499999998897e+02 -8.862733500448788493e-87
1.147724999999998943e+02 -3.329444968400931228e-86
1.149862499999998988e+02 -6.045044745276015740e-86
1.151999999999998749e+02 -8.476183496400223845e-86
1.154137499999998795e+02 -9.885649684488821567e-86
1.156274999999998840e+02 -9.459416423657647292e-86
1.158412499999998886e+02 -6.476096840780689782e-86
1.160549999999998931e+02 -5.294828589235076853e-87
1.162687499999998977e+02 8.227825782933714119e-86
1.164824999999999022e+02 1.887136644942388760e-85
1.166962499999998784e+02 2.958950227821826149e-85
1.169099999999998829e+02 3.773859804425884955e-85
1.171237499999998875e+02 4.013122362439560832e-85
1.173374999999998920e+02 3.358946077072182703e-85
1.175512499999998965e+02 1.574327283218898120e-85
1.177649999999999011e+02 -1.401643677718329749e-85
1.179787499999998772e+02 -5.359946487674927836e-85
1.181924999999998818e+02 -9.753377123446570824e-85
1.184062499999998863e+02 -1.368231332191192843e-84
1.186199999999998909e+02 -1.596206458242817027e-84
1.188337499999998954e+02 -1.529122030865608810e-84
1.190474999999999000e+02 -1.052379608276060727e-84
1.192612499999998761e+02 -1.023317401730716159e-85
1.194749999999998806e+02 1.295311640781895583e-84
1.196887499999998852e+02 2.992315750535009578e-84
1.199024999999998897e+02 4.700556934646389386e-84
1.201162499999998943e+02 6.001746234481705963e-84
1.203299999999998988e+02 6.393750845501692401e-84
1.205437499999998749e+02 5.378104907967593260e-84
1.207574999999998795e+02 2.585084256225392020e-84
1.209712499999998840e+02 -2.078193377236323093e-84
1.211849999999998886e+02 -8.283255418548329275e-84
1.213987499999998931e+02 -1.517670374432732477e-83
1.216124999999998977e+02 -2.136110456030931752e-83
1.218262499999998738e+02 -2.500192093163846989e-83
1.220399999999998784e+02 -2.408899552884085238e-83
1.222537499999998829e+02 -1.685528534001197322e-83
1.224674999999998875e+02 -2.317885463843966725e-84
1.226812499999998920e+02 1.913895825607848306e-83
1.228949999999998965e+02 4.526426709711597339e-83
1.231087499999998727e+02 7.168326100133551944e-83
1.233224999999998772e+02 9.205085411041975981e-83
1.235362499999998818e+02 9.875520201471876035e-83
1.237499999999998863e+02 8.423561614096305683e-83
1.239637499999998909e+02 4.285589845166779905e-83
1.241774999999998954e+02 -2.688747134784866727e-83
1.243912499999998715e+02 -1.202195163981706988e-82
1.246049999999998761e+02 -2.245552450919330186e-82
1.248187499999998806e+02 -3.192198244847081879e-82
1.250324999999998852e+02 -3.770235991514031082e-82
1.252462499999998897e+02 -3.680987102841063997e-82