2.024999999999579359e-01 3.171472454415783075e-94
4.162499999999482725e-01 3.113255680071873744e-94
6.299999999999528200e-01 1.818566167618995538e-94
8.437499999999573674e-01 -1.254645062552521971e-94
1.057499999999947704e+00 -6.419914040030881244e-94
1.271249999999952252e+00 -1.345302684851880442e-93
1.484999999999956799e+00 -2.123448908781382988e-93
1.698749999999947136e+00 -2.744136773875185280e-93
1.912499999999951683e+00 -2.844647797126970301e-93
2.126249999999956231e+00 -1.963113179858154171e-93
2.339999999999946567e+00 3.674332349232988929e-94
2.553749999999951115e+00 4.447535957245284852e-93
2.767499999999955662e+00 1.016531191157971343e-92
2.981249999999945999e+00 1.670943642234541987e-92
3.194999999999950546e+00 2.231643740255144125e-92
3.408749999999955094e+00 2.417383149398574113e-92
3.622499999999945430e+00 1.863722790078805638e-92
3.836249999999949978e+00 1.925308216935936539e-93
4.049999999999954525e+00 -2.859431764093610924e-92
4.263749999999944862e+00 -7.254742212363113379e-92
4.477499999999949409e+00 -1.243686287821983168e-91
4.691249999999953957e+00 -1.713424085821664045e-91
4.904999999999944293e+00 -1.927587216759238510e-91
5.118749999999948841e+00 -1.613365793824166148e-91
5.332499999999953388e+00 -4.810900292378820959e-92
5.546249999999943725e+00 1.684025548578862682e-91
5.759999999999948272e+00 4.888349164007045740e-91
5.973749999999952820e+00 8.771554960810120577e-91
6.187499999999943157e+00 1.246217622984631902e-90
6.401249999999947704e+00 1.450899048611309358e-90
6.614999999999952252e+00 1.296850294331737571e-90
6.828749999999942588e+00 5.731584010472261373e-91
7.042499999999947136e+00 -8.852554879888668522e-91
7.256249999999951683e+00 -3.106041483832989719e-90
7.469999999999942020e+00 -5.869897345913504230e-90
7.683749999999946567e+00 -8.608802764757871735e-90
7.897499999999951115e+00 -1.035331881113612532e-89
8.111249999999941451e+00 -9.782417007524884686e-90
8.324999999999945999e+00 -5.431276228144921786e-90
8.538749999999950546e+00 3.903562571168375397e-90
8.752499999999940883e+00 1.856334056259553893e-89
8.966249999999945430e+00 3.730129757763115629e-89
9.179999999999949978e+00 5.659532127169145586e-89
9.393749999999940314e+00 7.026251529904735577e-89
9.607499999999944862e+00 6.971736910156624925e-89
9.821249999999949409e+00 4.522947334839977959e-89
1.003499999999993975e+01 -1.156146468096311939e-89
1.024874999999994429e+01 -1.038688869937445530e-88
1.046249999999994884e+01 -2.251432662038755293e-88
1.067624999999993918e+01 -3.546103184063734113e-88
1.088999999999994373e+01 -4.545758529052276817e-88
1.110374999999994827e+01 -4.715968911425824712e-88
1.131749999999993861e+01 -3.437222585935465097e-88
1.153124999999994316e+01 -1.543597483442352855e-89
1.174499999999994770e+01 5.395598667238090044e-88
1.195874999999993804e+01 1.290116989270004844e-87
1.217249999999994259e+01 2.119757599505648565e-87
1.238624999999994714e+01 2.808616533688100139e-87
1.259999999999993747e+01 3.037636625538899655e-87
1.281374999999994202e+01 2.428185573526906568e-87
1.302749999999994657e+01 6.271243452659084983e-88
1.324124999999995111e+01 -2.561119629798066581e-87
1.345499999999994145e+01 -7.008363896750021432e-87
1.366874999999994600e+01 -1.209472271970104858e-86
1.388249999999995055e+01 -1.659254888173604872e-86
1.409624999999994088e+01 -1.867321710822276165e-86
1.430999999999994543e+01 -1.611282674783113457e-86
1.452374999999994998e+01 -6.756505342468618195e-87
1.473749999999994031e+01 1.074510208819349272e-86
1.495124999999994486e+01 3.599298577984996095e-86
1.516499999999994941e+01 6.586416400903226959e-86
1.537874999999993975e+01 9.379582037107857722e-86
1.559249999999994429e+01 1.097202725910277402e-85
1.580624999999994884e+01 1.010758527911894702e-85
1.601999999999993918e+01 5.523756058929223156e-86
1.623374999999994373e+01 -3.652962993922505031e-86
1.644749999999994827e+01 -1.739131425126465054e-85
1.666124999999993861e+01 -3.420858768576175949e-85
1.687499999999994316e+01 -5.074678386489089950e-85
1.708874999999994770e+01 -6.167988391312268250e-85
1.730249999999993804e+01 -6.018195673349542128e-85
1.751624999999994259e+01 -3.914774332114067238e-85
1.772999999999994714e+01 6.763878437986987507e-86
1.794374999999993747e+01 7.840885103489545566e-85
1.815749999999994202e+01 1.692030408053942889e-84
1.837124999999994657e+01 2.627136307295107767e-84
1.858499999999993690e+01 3.318684086597214809e-84
1.879874999999994145e+01 3.409835779594039318e-84
1.901249999999994600e+01 2.516419997901845081e-84
1.922624999999993634e+01 3.286622770575071109e-85
1.943999999999994088e+01 -3.250365027524034974e-84
1.965374999999994543e+01 -7.950738077261457694e-84
1.986749999999993577e+01 -1.300432543375752021e-83
2.008124999999994031e+01 -1.708936978763064004e-83
2.029499999999994486e+01 -1.841166056758895567e-83
2.050874999999993520e+01 -1.497591806206481044e-83
2.072249999999993975e+01 -5.073553436331427709e-84
2.093624999999994429e+01 1.203806743499037363e-83
2.114999999999993463e+01 3.536204105190534717e-83
2.136374999999993918e+01 6.147467820311097079e-83
2.157749999999994373e+01 8.418067180248687492e-83
2.179124999999993406e+01 9.480669495139267781e-83
2.200499999999993861e+01 8.340199419481339169e-83
2.221874999999994316e+01 4.099067152174525713e-83
2.243249999999993349e+01 -3.721570967034663537e-83
2.264624999999993804e+01 -1.480752039819275760e-82
2.285999999999994259e+01 -2.770675580479094843e-82
2.307374999999993292e+01 -3.963304085232708731e-82
2.328749999999993747e+01 -4.655745044257412217e-82
2.350124999999994202e+01 -4.371730537900985794e-82
2.371499999999993236e+01 -2.661797039083707158e-82
2.392874999999993690e+01 7.502723219811013058e-83
2.414249999999994145e+01 5.793109813979667608e-82
2.435624999999993179e+01 1.188198600131840187e-81
2.456999999999993634e+01 1.781495907952503774e-81
2.478374999999994088e+01 2.179438760152435978e-81
2.499749999999993122e+01 2.163387149539021880e-81
2.521124999999993577e+01 1.518779311775780661e-81
2.542499999999994031e+01 9.947583508820066434e-83
2.563874999999993065e+01 -2.094104954909244163e-81
2.585249999999993520e+01 -4.838656231810665785e-81
2.606624999999993975e+01 -7.636616118518095416e-81
2.627999999999994429e+01 -9.717601998280489724e-81
2.649374999999993463e+01 -1.011940979803536564e-80
2.670749999999993918e+01 -7.865886357958088424e-81
2.692124999999994373e+01 -2.239636370916053938e-81
2.713499999999993406e+01 6.881071890766122332e-81
2.734874999999993861e+01 1.868599710847129035e-80
2.756249999999994316e+01 3.119453722070104426e-80
2.777624999999993349e+01 4.123315358513538409e-80
2.798999999999993804e+01 4.474307966050546314e-80
2.820374999999994259e+01 3.749439297680556356e-80
2.841749999999993292e+01 1.620293552354762177e-80
2.863124999999993747e+01 -2.007146905451806817e-80
2.884499999999994202e+01 -6.850814873983988348e-80
2.905874999999993236e+01 -1.214871313062711338e-79
2.927249999999993690e+01 -1.664114789104694763e-79
2.948624999999994145e+01 -1.868600771859721026e-79
2.969999999999993179e+01 -1.653856576112316152e-79
2.991374999999993634e+01 -8.795159760211920903e-80
3.012749999999994088e+01 5.047381371908773035e-80
3.034124999999993122e+01 2.402116125524337483e-79
3.055499999999993577e+01 4.526343368463968807e-79
3.076874999999994031e+01 6.393075538932785909e-79
3.098249999999993065e+01 7.363592161586349393e-79
3.119624999999993520e+01 6.752966501586568339e-79
3.140999999999993975e+01 4.002094381772487066e-79
3.162374999999993008e+01 -1.105755597993516380e-79
3.183749999999993463e+01 -8.225179591334978934e-79
3.205124999999993918e+01 -1.628732315768876695e-78
3.226499999999992951e+01 -2.347068271059174962e-78
3.247874999999993406e+01 -2.737389909998216857e-78
3.269249999999993861e+01 -2.543445546749731192e-78
3.290624999999992895e+01 -1.558620001242025257e-78
3.311999999999993349e+01 2.924245141402027230e-79
3.333374999999993804e+01 2.872574372343084332e-78
3.354749999999992838e+01 5.775394459046035034e-78
3.376124999999993292e+01 8.320378531233112868e-78
3.397499999999993747e+01 9.625785802063236664e-78
3.418874999999992781e+01 8.773557466632286239e-78
3.440249999999993236e+01 5.060395470302004146e-78
3.461624999999993690e+01 -1.699164253441930096e-78
3.482999999999992724e+01 -1.088324561459289021e-77
3.504374999999993179e+01 -2.087892758969951307e-77
3.525749999999993634e+01 -2.910832752935952293e-77
3.547124999999992667e+01 -3.235468918732415257e-77
3.568499999999993122e+01 -2.743137317946650100e-77
3.589874999999993577e+01 -1.215396474732363973e-77
3.611249999999992610e+01 1.353441427860515032e-77
3.632624999999993065e+01 4.655212171611208016e-77
3.653999999999993520e+01 8.014318846341031365e-77
3.675374999999992554e+01 1.042067514246384886e-76
3.696749999999993008e+01 1.068071691869607906e-76
3.718124999999993463e+01 7.697410800477597057e-77
3.739499999999992497e+01 8.562639117877475623e-78
3.760874999999992951e+01 -9.549122534395379648e-77
3.782249999999993406e+01 -2.196293796428548709e-76
3.803624999999993861e+01 -3.342813979348907304e-76
3.824999999999994316e+01 -3.981134728586017533e-76
3.846374999999991928e+01 -3.650311368399559815e-76
3.867749999999992383e+01 -1.961553165629948972e-76
3.889124999999992838e+01 1.244121145406158765e-76
3.910499999999993292e+01 5.729571083834164789e-76
3.931874999999993747e+01 1.073300477147395591e-75
3.953249999999994202e+01 1.493542076753066121e-75
3.974624999999991815e+01 1.658230353268529617e-75
3.995999999999992269e+01 1.380051122073658016e-75
4.017374999999992724e+01 5.113075275901525100e-76
4.038749999999993179e+01 -9.903403939942172713e-76
4.060124999999993634e+01 -2.994449453789838870e-75
4.081499999999994088e+01 -5.148059010193178783e-75
4.102874999999991701e+01 -6.867472074685817990e-75
4.124249999999992156e+01 -7.394987234599160394e-75
4.145624999999992610e+01 -5.936531679430786230e-75
4.166999999999993065e+01 -1.880267327159329826e-75
4.188374999999993520e+01 4.927511726009208140e-75
4.209749999999993975e+01 1.390144350530099846e-74
4.231124999999991587e+01 2.351082681328912747e-74
4.252499999999992042e+01 3.124555011873526883e-74
4.273874999999992497e+01 3.385014040482073401e-74
4.295249999999992951e+01 2.789179489362003820e-74
4.316624999999993406e+01 1.066458900961894026e-74
4.337999999999993861e+01 -1.866328049600799017e-74
4.359374999999991473e+01 -5.786745241829348542e-74
4.380749999999991928e+01 -1.007704333589814990e-73
4.402124999999992383e+01 -1.370244606697278244e-73
4.423499999999992838e+01 -1.529683094087927394e-73
4.444874999999993292e+01 -1.338401259847374340e-73
4.466249999999993747e+01 -6.738342017427632879e-74
4.487624999999991360e+01 5.148896475971490142e-74
4.508999999999991815e+01 2.157639967012617362e-73
4.530374999999992269e+01 4.023737554578618484e-73
4.551749999999992724e+01 5.707805437757005789e-73
4.573124999999993179e+01 6.657044507477210877e-73
4.594499999999993634e+01 6.252111641228164763e-73
4.615874999999991246e+01 3.944779812421052204e-73
4.637249999999991701e+01 -5.585049445646030686e-74
4.658624999999992156e+01 -7.095674058306185906e-73
4.679999999999992610e+01 -1.487719660169764280e-72
4.701374999999993065e+01 -2.240349907124852868e-72
4.722749999999993520e+01 -2.753539699336943835e-72
4.744124999999993975e+01 -2.776929756512515996e-72
4.765499999999991587e+01 -2.073751073722927780e-72
4.786874999999992042e+01 -4.902844648851154331e-73
4.808249999999992497e+01 1.964937184741017186e-72
4.829624999999992951e+01 5.048856212749307707e-72
4.850999999999993406e+01 8.240891015958956605e-72
4.872374999999993861e+01 1.075381220562294702e-71
4.893749999999991473e+01 1.161982433393513953e-71
4.915124999999991928e+01 9.862808577883659936e-72
4.936499999999992383e+01 4.749826466387227203e-72
4.957874999999992838e+01 -3.908910016523929097e-72
4.979249999999993292e+01 -1.546866554392214139e-71
5.000624999999993747e+01 -2.824723180823164620e-71
5.021999999999991360e+01 -3.950198635521084250e-71
5.043374999999991815e+01 -4.567147047163618447e-71
5.064749999999992269e+01 -4.293384022388069111e-71
5.086124999999992724e+01 -2.807495379284156945e-71
5.107499999999993179e+01 4.243571229610637366e-73
5.128874999999993634e+01 4.126754461442112764e-71
5.150249999999991246e+01 8.946155277774057331e-71
5.171624999999991701e+01 1.360036859203380761e-70
5.192999999999992156e+01 1.684566662096286778e-70
5.214374999999992610e+01 1.726399164825750718e-70
5.235749999999993065e+01 1.354755550808135882e-70
5.257124999999993520e+01 4.874937844043270864e-71
5.278499999999991132e+01 -8.678513111089510512e-71
5.299874999999991587e+01 -2.578552978335413376e-70
5.321249999999992042e+01 -4.367945574766819401e-70
5.342624999999992497e+01 -5.825059800581400190e-70
5.363999999999992951e+01 -6.451835212280677335e-70
5.385374999999993406e+01 -5.751381428259771874e-70
5.406749999999991019e+01 -3.351849165923911959e-70
5.428124999999991473e+01 8.506505401330253781e-71
5.449499999999991928e+01 6.558053173012490515e-70
5.470874999999992383e+01 1.298219100394854219e-69
5.492249999999992838e+01 1.884265136768574498e-69
5.513624999999993292e+01 2.248529766590414145e-69
5.534999999999990905e+01 2.213978334800617545e-69
5.556374999999991360e+01 1.630710589774445832e-69
5.577749999999991815e+01 4.232554034759248881e-70
5.599124999999992269e+01 -1.361906309678161900e-69
5.620499999999992724e+01 -3.520174563935125938e-69
5.641874999999993179e+01 -5.677269109418147474e-69
5.663249999999990791e+01 -7.314554957131324830e-69
5.684624999999991246e+01 -7.839168659192726571e-69
5.705999999999991701e+01 -6.698887482567120014e-69
5.727374999999992156e+01 -3.530715827646280546e-69
5.748749999999992610e+01 1.680220412944422856e-69
5.770124999999993065e+01 8.466159999192219303e-69
5.791499999999990678e+01 1.580825170886765712e-68
5.812874999999991132e+01 2.217523479974880498e-68
5.834249999999991587e+01 2.569948459063631685e-68
5.855624999999992042e+01 2.449846415540833010e-68
5.876999999999992497e+01 1.711737786102002101e-68
5.898374999999992951e+01 3.030744449201675316e-69
5.919749999999990564e+01 -1.689612297924476667e-68
5.941124999999991019e+01 -4.011069218628385527e-68
5.962499999999991473e+01 -6.237180098261619320e-68
5.983874999999991928e+01 -7.814858911894297198e-68
6.005249999999992383e+01 -8.146633085105482238e-68
6.026624999999992838e+01 -6.715503697183671992e-68
6.047999999999990450e+01 -3.234486932560322209e-68
6.069374999999990905e+01 2.206085724735350279e-68
6.090749999999991360e+01 9.029213229075025764e-68
6.112124999999991815e+01 1.613875906500718091e-67
6.133499999999992269e+01 2.199782490489901242e-67
6.154874999999992724e+01 2.483708971925730533e-67
6.176249999999993179e+01 2.298781553594005301e-67
6.197624999999990791e+01 1.530283943865569299e-67
6.218999999999991246e+01 1.595752105746896759e-68
6.240374999999991701e+01 -1.699900438200473173e-67
6.261749999999992156e+01 -3.785571926360893067e-67
6.283124999999992610e+01 -5.697860147457648363e-67
6.304499999999993065e+01 -6.948067904408657637e-67
6.325874999999990678e+01 -7.042330206528365486e-67
6.347249999999991132e+01 -5.593484369143779325e-67
6.368624999999991587e+01 -2.443527551131209279e-67
6.389999999999992042e+01 2.228658356349666189e-67
6.411374999999992497e+01 7.844112632108384831e-67
6.432749999999992951e+01 1.343370852011519617e-66
6.454124999999990564e+01 1.774132487022014579e-66
6.475499999999991019e+01 1.942457669752961074e-66
6.496874999999991473e+01 1.733563706039002193e-66
6.518249999999991928e+01 1.084042720520251446e-66
6.539624999999992383e+01 1.128131383948441972e-68
6.560999999999992838e+01 -1.367252666043315308e-66
6.582374999999990450e+01 -2.832341203241088664e-66
6.603749999999990905e+01 -4.084453113390251729e-66
6.625124999999991360e+01 -4.789859317092809223e-66
6.646499999999991815e+01 -4.647546234440106037e-66
6.667874999999992269e+01 -3.466937168701623452e-66
6.689249999999992724e+01 -1.240974226753693795e-66
6.710624999999990337e+01 1.804146613603626373e-66
6.731999999999990791e+01 5.200895148430517421e-66
6.753374999999991246e+01 8.287246433850939458e-66
6.774749999999991701e+01 1.031191173858503398e-65
6.796124999999992156e+01 1.058795518988185277e-65
6.817499999999992610e+01 8.669960479105085807e-66
6.838874999999990223e+01 4.517117534330118246e-66
6.860249999999990678e+01 -1.402263772129232191e-66
6.881624999999991132e+01 -8.106687313717063363e-66
6.902999999999991587e+01 -1.422546059701362428e-65
6.924374999999992042e+01 -1.825266224417659246e-65
6.945749999999992497e+01 -1.889921789743316334e-65
6.967124999999990109e+01 -1.547584479833471437e-65
6.988499999999990564e+01 -8.211698388290614716e-66
7.009874999999991019e+01 1.597008172080601897e-66
7.031249999999991473e+01 1.169889713969232395e-65
7.052624999999991928e+01 1.930508078743758113e-65
7.073999999999992383e+01 2.178522915967361430e-65
7.095374999999989996e+01 1.752579563884691603e-65
7.116749999999990450e+01 6.748262852511001493e-66
7.138124999999990905e+01 -7.972392620563411909e-66
7.159499999999991360e+01 -2.175207707695982019e-65
7.180874999999991815e+01 -2.819637633647998067e-65
7.202249999999992269e+01 -2.099232433325201955e-65
7.223624999999989882e+01 3.889404422971637385e-66
7.244999999999990337e+01 4.581620726766572807e-65
7.266374999999990791e+01 9.759617579347263442e-65
7.287749999999991246e+01 1.448381987717412982e-64
7.309124999999991701e+01 1.672893562345267174e-64
7.330499999999992156e+01 1.425842272022919992e-64
7.351874999999989768e+01 5.231824450378116854e-65
7.373249999999990223e+01 -1.103495325780725266e-64
7.394624999999990678e+01 -3.331259874348875283e-64
7.415999999999991132e+01 -5.792469899307076584e-64
7.437374999999991587e+01 -7.868606152494053746e-64
7.458749999999992042e+01 -8.753312489056769362e-64
7.480124999999992497e+01 -7.596596195338213090e-64
7.501499999999990109e+01 -3.724758683561549564e-64
7.522874999999990564e+01 3.092295371866673295e-64
7.544249999999991019e+01 1.237924965184872060e-63
7.565624999999991473e+01 2.277219233286943251e-63
7.586999999999991928e+01 3.199610751935716109e-63
7.608374999999992383e+01 3.707591570971037790e-63
7.629749999999989996e+01 3.482197189508088059e-63
7.651124999999990450e+01 2.257559978959129430e-63
7.672499999999990905e+01 -8.732247037783757667e-65
7.693874999999991360e+01 -3.436364321188780377e-63
7.715249999999991815e+01 -7.367269343449701635e-63
7.736624999999992269e+01 -1.113249792084194930e-62
7.757999999999989882e+01 -1.371521889543312352e-62
7.779374999999990337e+01 -1.397593869609425477e-62
7.800749999999990791e+01 -1.088879077696381184e-62
7.822124999999991246e+01 -3.843587382539492535e-63
7.843499999999991701e+01 7.035944550459424375e-63
7.864874999999992156e+01 2.063047568341313888e-62
7.886249999999989768e+01 3.470661498871801315e-62
7.907624999999990223e+01 4.602621393616558743e-62
7.928999999999990678e+01 5.074425171824224747e-62
7.950374999999991132e+01 4.510861035667020576e-62
7.971749999999991587e+01 2.640651504427463361e-62
7.993124999999992042e+01 -5.978257515725320156e-63
8.014499999999989654e+01 -4.961104799582364248e-62
8.035874999999990109e+01 -9.842349733961296847e-62
8.057249999999990564e+01 -1.427815730165669981e-61
8.078624999999991019e+01 -1.704314593364348966e-61
8.099999999999991473e+01 -1.684246421013933061e-61
8.121374999999991928e+01 -1.259278183422331490e-61
8.142749999999989541e+01 -3.757875446774512343e-62
8.164124999999989996e+01 9.320378557696742312e-62
8.185499999999990450e+01 2.517527681310480104e-61
8.206874999999990905e+01 4.114162975906652960e-61
8.228249999999991360e+01 5.353556094802943883e-61
8.249624999999991815e+01 5.813793824482884047e-61
8.270999999999989427e+01 5.097891130674002713e-61
8.292374999999989882e+01 2.935016277390304475e-61
8.313749999999990337e+01 -7.107522159358640488e-62
8.335124999999990791e+01 -5.546549576145691584e-61
8.356499999999991246e+01 -1.089868093346703803e-60
8.377874999999991701e+01 -1.572930172786766493e-60
8.399249999999989313e+01 -1.874247158496739748e-60
8.420624999999989768e+01 -1.858708548328849434e-60
8.441999999999990223e+01 -1.414474613927079682e-60
8.463374999999990678e+01 -4.867154296255660953e-61
8.484749999999991132e+01 8.896009052554164190e-61
8.506124999999991587e+01 2.565615581549940111e-60
8.527499999999989200e+01 4.271657974075434579e-60
8.548874999999989654e+01 5.635049046531425953e-60
8.570249999999990109e+01 6.227248537469863637e-60
8.591624999999990564e+01 5.639994612670771872e-60
8.612999999999991019e+01 3.583496350766661786e-60
8.634374999999991473e+01 -7.547028949329826867e-63
8.655749999999989086e+01 -4.880929031848485988e-60
8.677124999999989541e+01 -1.041197756621882085e-59
8.698499999999989996e+01 -1.561183603425930713e-59
8.719874999999990450e+01 -1.921878538475150602e-59
8.741249999999990905e+01 -1.988087358353724382e-59
8.762624999999991360e+01 -1.642090775560942156e-59
8.783999999999991815e+01 -8.153855071876610502e-60
8.805374999999989427e+01 4.794786206492923602e-60
8.826749999999989882e+01 2.123853028210709404e-59
8.848124999999990337e+01 3.882454153488973605e-59
8.869499999999990791e+01 5.414488986278517041e-59
8.890874999999991246e+01 6.311299058844065805e-59
8.912249999999991701e+01 6.161282698061141285e-59
8.933624999999989313e+01 4.637249762461261943e-59
8.954999999999989768e+01 1.594958949435906039e-59
8.976374999999990223e+01 -2.834505492224198369e-59
8.997749999999990678e+01 -8.180243595810251364e-59
9.019124999999991132e+01 -1.361784996786680583e-58
9.040499999999991587e+01 -1.802615045331832522e-58
9.061874999999989200e+01 -2.012548478594971676e-58
9.083249999999989654e+01 -1.869505366063496381e-58
9.104624999999990109e+01 -1.284938880878502438e-58
9.125999999999990564e+01 -2.335125237764740957e-59
9.147374999999991019e+01 1.220753618431418260e-58
9.168749999999991473e+01 2.908481267202009516e-58
9.190124999999989086e+01 4.555698222840415515e-58
9.211499999999989541e+01 5.806620286558131192e-58
9.232874999999989996e+01 6.270806446540554983e-58
9.254249999999990450e+01 5.592740305802341128e-58
9.275624999999990905e+01 3.536630618745082368e-58
9.296999999999991360e+01 7.379286976083787778e-60
9.318374999999988972e+01 -4.544561621978642968e-58
9.339749999999989427e+01 -9.748729911459841780e-58
9.361124999999989882e+01 -1.466488012667153636e-57
9.382499999999990337e+01 -1.819619660301011243e-57
9.403874999999990791e+01 -1.917532236458083989e-57
9.425249999999991246e+01 -1.657948607765888267e-57
9.446624999999988859e+01 -9.784249963670725579e-58
9.467999999999989313e+01 1.183531707290055788e-58
9.489374999999989768e+01 1.544504976581198897e-57
9.510749999999990223e+01 3.117807572625769404e-57
9.532124999999990678e+01 4.568715352773551409e-57
9.553499999999991132e+01 5.567150945513583480e-57
9.574874999999988745e+01 5.769805743048853732e-57
9.596249999999989200e+01 4.884793608050761773e-57
9.617624999999989654e+01 2.746052586493178053e-57
9.638999999999990109e+01 -6.143899833906441971e-58
9.660374999999990564e+01 -4.911375635618373571e-57
9.681749999999991019e+01 -9.585042460749593860e-57
9.703124999999988631e+01 -1.382723930496133400e-56
9.724499999999989086e+01 -1.666530207006146516e-56
9.745874999999989541e+01 -1.710401408661352450e-56
9.767249999999989996e+01 -1.431528514536902463e-56
9.788624999999990450e+01 -7.852485537511961086e-57
9.809999999999990905e+01 2.145432640017847551e-57
9.831374999999988518e+01 1.480333362405767853e-56
9.852749999999988972e+01 2.845853086512801061e-56
9.874124999999989427e+01 4.074848781249116173e-56
9.895499999999989882e+01 4.886195648798321277e-56
9.916874999999990337e+01 4.995309704010740572e-56
9.938249999999990791e+01 4.168605484508483081e-56
9.959624999999988404e+01 2.284233210464370483e-56
9.980999999999988859e+01 -6.108935674555119390e-57
1.000237499999998931e+02 -4.259984307403525544e-56
1.002374999999998977e+02 -8.183857951378319643e-56
1.004512499999999022e+02 -1.170786512229630785e-55
1.006649999999999068e+02 -1.403458280764482685e-55
1.008787499999998829e+02 -1.436158059677961279e-55
1.010924999999998875e+02 -1.203461660978091572e-55
1.013062499999998920e+02 -6.716965900836533184e-56
1.015199999999998965e+02 1.453117050420565692e-56
1.017337499999999011e+02 1.175058648467623818e-55
1.019474999999999056e+02 2.283214568258015816e-55
1.021612499999999102e+02 3.281432082158871566e-55
1.023749999999998863e+02 3.947752619574483524e-55
1.025887499999998909e+02 4.059306145671354489e-55
1.028024999999998954e+02 3.434550898766192998e-55
1.030162499999999000e+02 1.979688472365318652e-55
1.032299999999999045e+02 -2.684299616132761586e-56
1.034437499999999091e+02 -3.112090170339033814e-55
1.036574999999998852e+02 -6.184539963114826223e-55
1.038712499999998897e+02 -8.971617762501442107e-55
1.040849999999998943e+02 -1.086744239198141252e-54
1.042987499999998988e+02 -1.126312399508969611e-54
1.045124999999999034e+02 -9.660883709720373891e-55
1.047262499999999079e+02 -5.799025818027570436e-55
1.049399999999998840e+02 2.328868866937439113e-56
1.051537499999998886e+02 7.913150254229637254e-55
1.053674999999998931e+02 1.626607544985368400e-54
1.055812499999998977e+02 2.391955706217616830e-54
1.057949999999999022e+02 2.925299298469630589e-54
1.060087499999999068e+02 3.063242409286543704e-54
1.062224999999998829e+02 2.671245960419249762e-54
1.064362499999998875e+02 1.676642732397892296e-54
1.066499999999998920e+02 9.904454751084197081e-56
1.068637499999998965e+02 -1.928262849509840160e-54
1.070774999999999011e+02 -4.152370983988696398e-54
1.072912499999999056e+02 -6.215506433966664601e-54
1.075049999999998818e+02 -7.693281053634401213e-54
1.077187499999998863e+02 -8.155565186872762753e-54
1.079324999999998909e+02 -7.244653897873560446e-54
1.081462499999998954e+02 -4.760756446166888781e-54
1.083599999999999000e+02 -7.408439788606759641e-55
1.085737499999999045e+02 4.485542418773521903e-54
1.087874999999998806e+02 1.027992820993766105e-53
1.090012499999998852e+02 1.573134039713816338e-53
1.092149999999998897e+02 1.975256373797551939e-53
1.094287499999998943e+02 2.123396405116602600e-53
1.096424999999998988e+02 1.924137381018842367e-53
1.098562499999999034e+02 1.323290021810718401e-53
1.100699999999998795e+02 3.259563357501745435e-54
1.102837499999998840e+02 -9.891319746135450455e-54
1.104974999999998886e+02 -2.465100234756544995e-53
1.107112499999998931e+02 -3.875573648515188915e-53
1.109249999999998977e+02 -4.948229348490830594e-53
1.111387499999999022e+02 -5.402712280962558127e-53
1.113524999999998784e+02 -4.999595037896649413e-53
1.115662499999998829e+02 -3.594204538168287422e-53
1.117799999999998875e+02 -1.186704759540353324e-53
1.119937499999998920e+02 2.041632500374271749e-53
1.122074999999998965e+02 5.716008753940562520e-53
1.124212499999999011e+02 9.287698476659955813e-53
1.126349999999998772e+02 1.209000731181138815e-52
1.128487499999998818e+02 1.342937354924981840e-52
1.130624999999998863e+02 1.270371001352163267e-52
1.132762499999998909e+02 9.533211659635870264e-53
1.134899999999998954e+02 3.883007909694638807e-53
1.137037499999999000e+02 -3.846469728091616354e-53
1.139174999999998761e+02 -1.278550639669658193e-52
1.141312499999998806e+02 -2.163720784750483332e-52
1.143449999999998852e+02 -2.880637021201075413e-52
1.145587499999998897e+02 -3.261270455651892217e-52
1.147724999999998943e+02 -3.157024962430544055e-52
1.149862499999998988e+02 -2.469860935933124510e-52
1.151999999999998749e+02 -1.181783498617409427e-52
1.154137499999998795e+02 6.229618795596110795e-53
1.156274999999998840e+02 2.748662541706761828e-52
1.158412499999998886e+02 4.896562723893402678e-52
1.160549999999998931e+02 6.693558115558902852e-52
1.162687499999998977e+02 7.740773463601794724e-52
1.164824999999999022e+02 7.678006308226101756e-52
1.166962499999998784e+02 6.256274651661078380e-52
1.169099999999998829e+02 3.407487351469779404e-52
1.171237499999998875e+02 -7.017438275554259817e-53
1.173374999999998920e+02 -5.645281193423859973e-52
1.175512499999998965e+02 -1.075261438960807676e-51
1.177649999999999011e+02 -1.517040682487191409e-51
1.179787499999998772e+02 -1.797012209593873320e-51
1.181924999999998818e+02 -1.829323666404366892e-51
1.184062499999998863e+02 -1.551703630576799007e-51
1.186199999999998909e+02 -9.416584018025004490e-52
1.188337499999998954e+02 -2.936820894133900028e-53
1.190474999999999000e+02 1.095705112940257257e-51
1.192612499999998761e+02 2.287049616740591133e-51
1.194749999999998806e+02 3.353745558627145947e-51
1.196887499999998852e+02 4.083622828408689593e-51
1.199024999999998897e+02 4.275232253666788898e-51
1.201162499999998943e+02 3.775027274129413569e-51
1.203299999999998988e+02 2.514463478289217409e-51
1.205437499999998749e+02 5.405867923903378587e-52
1.207574999999998795e+02 -1.966587987375488883e-51
1.209712499999998840e+02 -4.695776279253521760e-51
1.211849999999998886e+02 -7.229047854348092940e-51
1.213987499999998931e+02 -9.090108380391342112e-51
1.216124999999998977e+02 -9.813065396487983113e-51
1.218262499999998738e+02 -9.024314240114582017e-51
1.220399999999998784e+02 -6.526360377333305443e-51
1.222537499999998829e+02 -2.369680130500987236e-51
1.224674999999998875e+02 3.102192453573349436e-51
1.226812499999998920e+02 9.247746268854964623e-51
1.228949999999998965e+02 1.517213822947560982e-50
1.231087499999998727e+02 1.982436713912177286e-50
1.233224999999998772e+02 2.214165797978594856e-50
1.235362499999998818e+02 2.122662483078720527e-50
1.237499999999998863e+02 1.653420608889135925e-50
1.239637499999998909e+02 8.038889374678870442e-51
1.241774999999998954e+02 -3.650109653637496205e-51
1.243912499999998715e+02 -1.725605358464177616e-50
1.246049999999998761e+02 -3.090710448303013537e-50
1.248187499999998806e+02 -4.232389533380258156e-50
1.250324999999998852e+02 -4.911496139253150980e-50
1.252462499999998897e+02 -4.915317721962601802e-50
1.254599999999998943e+02 -4.098723051934630283e-50
1.256737499999998704e+02 -2.422677695228134063e-50
1.258874999999998749e+02 1.684159415673979774e-52
1.261012499999998795e+02 2.976348701472421538e-50
1.263149999999998840e+02 6.074263596205345289e-50
1.265287499999998886e+02 8.825238416878672140e-50
1.267424999999998931e+02 1.069888093797861884e-49
1.269562499999998693e+02 1.119821642405667665e-49