2.024999999999579359e-01 2.163028711864311374e-139
4.162499999999482725e-01 2.310199288024360679e-139
6.299999999999528200e-01 1.422762497152530861e-139
8.437499999999573674e-01 -1.365245357850715911e-139
1.057499999999947704e+00 -7.032077691412230847e-139
1.271249999999952252e+00 -1.628824154330443129e-138
1.484999999999956799e+00 -2.883725524483295772e-138
1.698749999999947136e+00 -4.220422430526394965e-138
1.912499999999951683e+00 -5.020452589526323602e-138
2.126249999999956231e+00 -4.142849947024365795e-138
2.339999999999946567e+00 1.378976302461913119e-139
2.553749999999951115e+00 9.948395519586932117e-138
2.767499999999955662e+00 2.716117426101289163e-137
2.981249999999945999e+00 5.200791299629215594e-137
3.194999999999950546e+00 8.077369130293854531e-137
3.408749999999955094e+00 1.026646513974149724e-136
3.622499999999945430e+00 9.654253503857281326e-137
3.836249999999949978e+00 2.921855117940118028e-137
4.049999999999954525e+00 -1.416607205652329317e-136
4.263749999999944862e+00 -4.557537348104516162e-136
4.477499999999949409e+00 -9.242258732696221419e-136
4.691249999999953957e+00 -1.486568087136136911e-135
4.904999999999944293e+00 -1.952057661842933674e-135
5.118749999999948841e+00 -1.939241932696394246e-135
5.332499999999953388e+00 -8.450812568809076754e-136
5.546249999999943725e+00 2.101117033610848585e-135
5.759999999999948272e+00 7.621860423531103432e-135
5.973749999999952820e+00 1.593051529259177050e-134
6.187499999999943157e+00 2.597508434718498700e-134
6.401249999999947704e+00 3.443883938245692720e-134
6.614999999999952252e+00 3.474958191994315962e-134
6.828749999999942588e+00 1.665454505493446381e-134
7.042499999999947136e+00 -3.271181488161743633e-134
7.256249999999951683e+00 -1.250304487432471367e-133
7.469999999999942020e+00 -2.630291252198311095e-133
7.683749999999946567e+00 -4.281686433869597302e-133
7.897499999999951115e+00 -5.649885951332255949e-133
8.111249999999941451e+00 -5.665596057692333714e-133
8.324999999999945999e+00 -2.701682822452671070e-133
8.538749999999950546e+00 5.223558124982907441e-133
8.752499999999940883e+00 1.981504186316152722e-132
8.966249999999945430e+00 4.127526247447346988e-132
9.179999999999949978e+00 6.643988666591450289e-132
9.393749999999940314e+00 8.651565258631667167e-132
9.607499999999944862e+00 8.514808652693768836e-132
9.821249999999949409e+00 3.820700545578646450e-132
1.003499999999993975e+01 -8.263614565205876205e-132
1.024874999999994429e+01 -3.000820672044159228e-131
1.046249999999994884e+01 -6.131305412500992071e-131
1.067624999999993918e+01 -9.707671806000040386e-131
1.088999999999994373e+01 -1.241652733812302846e-130
1.110374999999994827e+01 -1.190821821659639132e-130
1.131749999999993861e+01 -4.830188350856898333e-131
1.153124999999994316e+01 1.259575021027248200e-130
1.174499999999994770e+01 4.314496233855898710e-130
1.195874999999993804e+01 8.609584809444661417e-130
1.217249999999994259e+01 1.337565696197900895e-129
1.238624999999994714e+01 1.676818835377297532e-129
1.259999999999993747e+01 1.561245554682887426e-129
1.281374999999994202e+01 5.531055466993267104e-130
1.302749999999994657e+01 -1.819959770600989901e-129
1.324124999999995111e+01 -5.870731400391409002e-129
1.345499999999994145e+01 -1.142948511055713424e-128
1.366874999999994600e+01 -1.741372436385230014e-128
1.388249999999995055e+01 -2.138661770906231476e-128
1.409624999999994088e+01 -1.930597811833296468e-128
1.430999999999994543e+01 -5.783537418564689685e-129
1.452374999999994998e+01 2.474009062481708066e-128
1.473749999999994031e+01 7.552023779031901322e-128
1.495124999999994486e+01 1.435743751920061226e-127
1.516499999999994941e+01 2.146632554017871551e-127
1.537874999999993975e+01 2.584551602771858205e-127
1.559249999999994429e+01 2.263401848222004338e-127
1.580624999999994884e+01 5.560395181641918699e-128
1.601999999999993918e+01 -3.155842497220129343e-127
1.623374999999994373e+01 -9.185087768484118383e-127
1.644749999999994827e+01 -1.708695749003862178e-126
1.666124999999993861e+01 -2.510622771142903974e-126
1.687499999999994316e+01 -2.967885579704176704e-126
1.708874999999994770e+01 -2.527129550342156783e-126
1.730249999999993804e+01 -4.962936564285750754e-127
1.751624999999994259e+01 3.776709855398105291e-126
1.772999999999994714e+01 1.056883097203035616e-125
1.794374999999993747e+01 1.929037377385028316e-125
1.815749999999994202e+01 2.790818422379679001e-125
1.837124999999994657e+01 3.246122222431136733e-125
1.858499999999993690e+01 2.697449551386002040e-125
1.879874999999994145e+01 4.190105592494883082e-126
1.901249999999994600e+01 -4.243369672020427907e-125
1.922624999999993634e+01 -1.151430240443232567e-124
1.943999999999994088e+01 -2.068229788607602359e-124
1.965374999999994543e+01 -2.952859146544911835e-124
1.986749999999993577e+01 -3.388200764081941820e-124
2.008124999999994031e+01 -2.761225033183967729e-124
2.029499999999994486e+01 -3.471097921116995574e-125
2.050874999999993520e+01 4.480154144812340731e-124
2.072249999999993975e+01 1.188568450231126025e-123
2.093624999999994429e+01 2.107792492500415923e-123
2.114999999999993463e+01 2.977077131775097023e-123
2.136374999999993918e+01 3.379628473756063052e-123
2.157749999999994373e+01 2.716990074105597971e-123
2.179124999999993406e+01 2.987921588023324740e-124
2.200499999999993861e+01 -4.447755269834768749e-123
2.221874999999994316e+01 -1.163039256986628661e-122
2.243249999999993349e+01 -2.043030693946002399e-122
2.264624999999993804e+01 -2.861974930846777210e-122
2.285999999999994259e+01 -3.224263220812817863e-122
2.307374999999993292e+01 -2.573476892240112761e-122
2.328749999999993747e+01 -2.818245947414132316e-123
2.350124999999994202e+01 4.152706426025606293e-122
2.371499999999993236e+01 1.078963519408939935e-121
2.392874999999993690e+01 1.883706055884663243e-121
2.414249999999994145e+01 2.623931243525403916e-121
2.435624999999993179e+01 2.942719193125511007e-121
2.456999999999993634e+01 2.347143171985124575e-121
2.478374999999994088e+01 2.919266239951594522e-122
2.499749999999993122e+01 -3.644777986968251106e-121
2.521124999999993577e+01 -9.487023639343327615e-121
2.542499999999994031e+01 -1.651607080967199632e-120
2.563874999999993065e+01 -2.293440878890548522e-120
2.585249999999993520e+01 -2.568081137144626076e-120
2.606624999999993975e+01 -2.059514922796941124e-120
2.627999999999994429e+01 -3.155383980856104955e-121
2.649374999999993463e+01 3.003644311800844963e-120
2.670749999999993918e+01 7.899529088496617813e-120
2.692124999999994373e+01 1.375832137146739777e-119
2.713499999999993406e+01 1.909028526217658174e-119
2.734874999999993861e+01 2.140059691225832113e-119
2.756249999999994316e+01 1.734744998968767141e-119
2.777624999999993349e+01 3.355021159752785306e-120
2.798999999999993804e+01 -2.319523326611815363e-119
2.820374999999994259e+01 -6.219831947172957200e-119
2.841749999999993292e+01 -1.087126433322819624e-118
2.863124999999993747e+01 -1.510399744169162550e-118
2.884499999999994202e+01 -1.698835191943319700e-118
2.905874999999993236e+01 -1.397407310143934227e-118
2.927249999999993690e+01 -3.372443286445471398e-119
2.948624999999994145e+01 1.673848898586360751e-118
2.969999999999993179e+01 4.620463157401200508e-118
2.991374999999993634e+01 8.126886853985658705e-118
3.012749999999994088e+01 1.132353454576558885e-117
3.034124999999993122e+01 1.279688978144530825e-117
3.055499999999993577e+01 1.070409502692081650e-117
3.076874999999994031e+01 3.132004361781768371e-118
3.098249999999993065e+01 -1.125167813161320251e-117
3.119624999999993520e+01 -3.228116444569736237e-117
3.140999999999993975e+01 -5.725290409990496126e-117
3.162374999999993008e+01 -8.005679151682570616e-117
3.183749999999993463e+01 -9.092055709018307532e-117
3.205124999999993918e+01 -7.730190932927526067e-117
3.226499999999992951e+01 -2.642374974889635745e-117
3.247874999999993406e+01 7.030193591104655382e-117
3.269249999999993861e+01 2.112325014046976037e-116
3.290624999999992895e+01 3.778866298250446659e-116
3.311999999999993349e+01 5.297615381097555905e-116
3.333374999999993804e+01 6.034322707730699412e-116
3.354749999999992838e+01 5.192090883097595367e-116
3.376124999999993292e+01 1.981400024844794246e-116
3.397499999999993747e+01 -4.096948428865964525e-116
3.418874999999992781e+01 -1.288088067588713362e-115
3.440249999999993236e+01 -2.316157112087312988e-115
3.461624999999993690e+01 -3.241140433304865316e-115
3.482999999999992724e+01 -3.679769411981347579e-115
3.504374999999993179e+01 -3.166552878633607397e-115
3.525749999999993634e+01 -1.262453879528919398e-115
3.547124999999992667e+01 2.275558458322608973e-115
3.568499999999993122e+01 7.285327070987354411e-115
3.589874999999993577e+01 1.300011416613335445e-114
3.611249999999992610e+01 1.793680328927991220e-114
3.632624999999993065e+01 1.996763274279891677e-114
3.653999999999993520e+01 1.666570882500990207e-114
3.675374999999992554e+01 5.971491343175580261e-115
3.696749999999993008e+01 -1.286130170781330314e-114
3.718124999999993463e+01 -3.821271281017826730e-114
3.739499999999992497e+01 -6.525936312795978474e-114
3.760874999999992951e+01 -8.580128640097630383e-114
3.782249999999993406e+01 -8.923570713595069885e-114
3.803624999999993861e+01 -6.503051545264818241e-114
3.824999999999994316e+01 -6.695248016064914854e-115
3.846374999999991928e+01 8.334418965009225633e-114
3.867749999999992383e+01 1.893148500990855180e-113
3.889124999999992838e+01 2.801837143055338217e-113
3.910499999999993292e+01 3.127208524675915162e-113
3.931874999999993747e+01 2.416461846667168535e-113
3.953249999999994202e+01 3.750241447964388904e-114
3.974624999999991815e+01 -2.898772275472399647e-113
3.995999999999992269e+01 -6.683246682156152312e-113
4.017374999999992724e+01 -9.509434288213477415e-113
4.038749999999993179e+01 -9.276275691690489857e-113
4.060124999999993634e+01 -3.735012632837795707e-113
4.081499999999994088e+01 8.585845064013569852e-113
4.102874999999991701e+01 2.707621882070749334e-112
4.124249999999992156e+01 4.762949062936824590e-112
4.145624999999992610e+01 6.163927793752563622e-112
4.166999999999993065e+01 5.616222296138707942e-112
4.188374999999993520e+01 1.610087836592724133e-112
4.209749999999993975e+01 -7.091093309339238674e-112
4.231124999999991587e+01 -2.068168260817094564e-111
4.252499999999992042e+01 -3.735995633930453151e-111
4.273874999999992497e+01 -5.243443608227570845e-111
4.295249999999992951e+01 -5.790055544204436833e-111
4.316624999999993406e+01 -4.302738062766453453e-111
4.337999999999993861e+01 3.488855633805607426e-112
4.359374999999991473e+01 8.943315625135748620e-111
4.380749999999991928e+01 2.131379917574216519e-110
4.402124999999992383e+01 3.565826646267699730e-110
4.423499999999992838e+01 4.794288622573370357e-110
4.444874999999993292e+01 5.169693062522114457e-110
4.466249999999993747e+01 3.857219108822448171e-110
4.487624999999991360e+01 3.308966961859848143e-113
4.508999999999991815e+01 -6.960295015196323537e-110
4.530374999999992269e+01 -1.688879381218605170e-109
4.551749999999992724e+01 -2.843727303446747996e-109
4.573124999999993179e+01 -3.864673931114992733e-109
4.594499999999993634e+01 -4.280477273253133549e-109
4.615874999999991246e+01 -3.482895099536113752e-109
4.637249999999991701e+01 -8.413326558608195221e-110
4.658624999999992156e+01 4.091909111582425321e-109
4.679999999999992610e+01 1.129294296637265234e-108
4.701374999999993065e+01 1.993511225305236632e-108
4.722749999999993520e+01 2.809920668643806690e-108
4.744124999999993975e+01 3.265262736281527221e-108
4.765499999999991587e+01 2.945514680351579022e-108
4.786874999999992042e+01 1.404628484611906466e-108
4.808249999999992497e+01 -1.708682996488312327e-108
4.829624999999992951e+01 -6.468853019872290094e-108
4.850999999999993406e+01 -1.245886807265951642e-107
4.872374999999993861e+01 -1.857174076876975699e-107
4.893749999999991473e+01 -2.290335115472446781e-107
4.915124999999991928e+01 -2.283164580702159834e-107
4.936499999999992383e+01 -1.537899386592405992e-107
4.957874999999992838e+01 2.073462058996922198e-108
4.979249999999993292e+01 3.071818647497689057e-107
5.000624999999993747e+01 6.900965363522327644e-107
5.021999999999991360e+01 1.113636096353319958e-106
5.043374999999991815e+01 1.472787504927616261e-106
5.064749999999992269e+01 1.614185982383400416e-106
5.086124999999992724e+01 1.352298103560831325e-106
5.107499999999993179e+01 5.055928701109914233e-107
5.128874999999993634e+01 -1.045902089135667344e-106
5.150249999999991246e+01 -3.285842721708313619e-106
5.171624999999991701e+01 -5.981445095899114238e-106
5.192999999999992156e+01 -8.618497108646046404e-106
5.214374999999992610e+01 -1.037972259749711486e-105
5.235749999999993065e+01 -1.019869107326196808e-105
5.257124999999993520e+01 -6.918429308922620681e-106
5.278499999999991132e+01 4.292350195561208929e-107
5.299874999999991587e+01 1.223268235843685838e-105
5.321249999999992042e+01 2.784361428394139738e-105
5.342624999999992497e+01 4.514435841796950507e-105
5.363999999999992951e+01 6.027341308011796629e-105
5.385374999999993406e+01 6.767470399961867165e-105
5.406749999999991019e+01 6.063982728247801204e-105
5.428124999999991473e+01 3.247324589583034768e-105
5.449499999999991928e+01 -2.168406368065241849e-105
5.470874999999992383e+01 -1.024905491211721575e-104
5.492249999999992838e+01 -2.038211484766562748e-104
5.513624999999993292e+01 -3.105146898566044375e-104
5.534999999999990905e+01 -3.972086830272840518e-104
5.556374999999991360e+01 -4.291467609718072452e-104
5.577749999999991815e+01 -3.658235382810784326e-104
5.599124999999992269e+01 -1.680955105892405724e-104
5.620499999999992724e+01 1.911150354186349048e-104
5.641874999999993179e+01 7.131790015565917199e-104
5.663249999999990791e+01 1.358867182488434316e-103
5.684624999999991246e+01 2.035064821421921534e-103
5.705999999999991701e+01 2.587103164824647273e-103
5.727374999999992156e+01 2.801593163747015272e-103
5.748749999999992610e+01 2.424935910863711355e-103
5.770124999999993065e+01 1.202024635682826964e-103
5.791499999999990678e+01 -1.062336111077119279e-103
5.812874999999991132e+01 -4.420432706697434875e-103
5.834249999999991587e+01 -8.683771908265713467e-103
5.855624999999992042e+01 -1.332449645845710054e-102
5.876999999999992497e+01 -1.739914361406473826e-102
5.898374999999992951e+01 -1.952705081550901938e-102
5.919749999999990564e+01 -1.796331372558612910e-102
5.941124999999991019e+01 -1.080906636730023362e-102
5.962499999999991473e+01 3.604215578118991561e-103
5.983874999999991928e+01 2.613964826055295857e-102
6.005249999999992383e+01 5.611104263249335907e-102
6.026624999999992838e+01 9.045254388296172029e-102
6.047999999999990450e+01 1.229652482603803308e-101
6.069374999999990905e+01 1.438976838168289725e-101
6.090749999999991360e+01 1.402044658668310109e-101
6.112124999999991815e+01 9.687835977298562186e-102
6.133499999999992269e+01 -2.766555943428551234e-104
6.154874999999992724e+01 -1.602188678884044985e-101
6.176249999999993179e+01 -3.807043934717225796e-101
6.197624999999990791e+01 -6.414259951528601292e-101
6.218999999999991246e+01 -8.976011080326158482e-101
6.240374999999991701e+01 -1.076152077407841449e-100
6.261749999999992156e+01 -1.077334620513541576e-100
6.283124999999992610e+01 -7.850262617102830034e-101
6.304499999999993065e+01 -8.853269878592860802e-102
6.325874999999990678e+01 1.082669741462585051e-100
6.347249999999991132e+01 2.712664516957248444e-100
6.368624999999991587e+01 4.647005088816567758e-100
6.389999999999992042e+01 6.545976462284400488e-100
6.411374999999992497e+01 7.860155811043277161e-100
6.432749999999992951e+01 7.849801085458259255e-100
6.454124999999990564e+01 5.670855093387887085e-100
6.475499999999991019e+01 5.457785650231813821e-101
6.496874999999991473e+01 -7.975369574795624513e-100
6.518249999999991928e+01 -1.968068597249135813e-99
6.539624999999992383e+01 -3.333786711694034028e-99
6.560999999999992838e+01 -4.639784822547704909e-99
6.582374999999990450e+01 -5.488343973208302330e-99
6.603749999999990905e+01 -5.360943510144323191e-99
6.625124999999991360e+01 -3.687716478594727657e-99
6.646499999999991815e+01 2.597796582803969245e-101
6.667874999999992269e+01 6.016370218877405788e-99
6.689249999999992724e+01 1.403818192634561021e-98
6.710624999999990337e+01 2.313955332846991036e-98
6.731999999999990791e+01 3.149626054241970507e-98
6.753374999999991246e+01 3.638659468402434756e-98
6.774749999999991701e+01 3.439765959753575159e-98
6.796124999999992156e+01 2.194361818839897659e-98
6.817499999999992610e+01 -3.862013269581224753e-99
6.838874999999990223e+01 -4.401029954033488624e-98
6.860249999999990678e+01 -9.621332850584513080e-98
6.881624999999991132e+01 -1.535993423211156639e-97
6.902999999999991587e+01 -2.038847719471264161e-97
6.924374999999992042e+01 -2.295209257620461221e-97
6.945749999999992497e+01 -2.093348720594171658e-97
6.967124999999990109e+01 -1.220785626505786324e-97
6.988499999999990564e+01 4.797537993341937573e-98
7.009874999999991019e+01 3.037195626227124306e-97
7.031249999999991473e+01 6.271473359144241322e-97
7.052624999999991928e+01 9.722439998232059240e-97
7.073999999999992383e+01 1.261235812344499410e-96
7.095374999999989996e+01 1.387046931790763411e-96
7.116749999999990450e+01 1.224762381222668705e-96
7.138124999999990905e+01 6.540859619374757970e-97
7.159499999999991360e+01 -4.069821803840671059e-97
7.180874999999991815e+01 -1.959799342961411477e-96
7.202249999999992269e+01 -3.880229557803539287e-96
7.223624999999989882e+01 -5.881422500676512310e-96
7.244999999999990337e+01 -7.497858457766570083e-96
7.266374999999990791e+01 -8.106193009324438261e-96
7.287749999999991246e+01 -6.997402331149783625e-96
7.309124999999991701e+01 -3.509491875369481363e-96
7.330499999999992156e+01 2.780293368990585301e-96
7.351874999999989768e+01 1.182029508188051031e-95
7.373249999999990223e+01 2.284228778668129697e-95
7.394624999999990678e+01 3.416897141471640488e-95
7.415999999999991132e+01 4.314509336792231356e-95
7.437374999999991587e+01 4.627429217641031769e-95
7.458749999999992042e+01 3.963588701773537924e-95
7.480124999999992497e+01 1.962574458740281868e-95
7.501499999999990109e+01 -1.599097857646223997e-95
7.522874999999990564e+01 -6.680969549508853665e-95
7.544249999999991019e+01 -1.284948523542427465e-94
7.565624999999991473e+01 -1.917691065295131801e-94
7.586999999999991928e+01 -2.420729037594484495e-94
7.608374999999992383e+01 -2.603229038963958998e-94
7.629749999999989996e+01 -2.251538216318172037e-94
7.651124999999990450e+01 -1.168705140676199427e-94
7.672499999999990905e+01 7.695439450924471038e-95
7.693874999999991360e+01 3.547258994784772066e-94
7.715249999999991815e+01 6.939264795853969244e-94
7.736624999999992269e+01 1.045631022141914253e-93
7.757999999999989882e+01 1.332457482037616777e-93
7.779374999999990337e+01 1.452193094010699198e-93
7.800749999999990791e+01 1.289142449004064188e-93
7.822124999999991246e+01 7.344757238178780783e-94
7.843499999999991701e+01 -2.845971946304829589e-94
7.864874999999992156e+01 -1.769145356080976963e-93
7.886249999999989768e+01 -3.611335203771019734e-93
7.907624999999990223e+01 -5.563641858788453111e-93
7.928999999999990678e+01 -7.224865375395566537e-93
7.950374999999991132e+01 -8.054753873777537413e-93
7.971749999999991587e+01 -7.428410080911552937e-93
7.993124999999992042e+01 -4.738148045209697460e-93
8.014499999999989654e+01 4.565745256017348469e-94
8.035874999999990109e+01 8.241263047891155850e-93
8.057249999999990564e+01 1.814449539643324660e-92
8.078624999999991019e+01 2.896136082171973694e-92
8.099999999999991473e+01 3.865569564230186492e-92
8.121374999999991928e+01 4.440366257914566799e-92
8.142749999999989541e+01 4.284062140484983706e-92
8.164124999999989996e+01 3.055821366866425029e-92
8.185499999999990450e+01 4.865267673104629368e-93
8.206874999999990905e+01 -3.522714646460474845e-92
8.228249999999991360e+01 -8.790740618123866579e-92
8.249624999999991815e+01 -1.475447498158314329e-91
8.270999999999989427e+01 -2.040232243540276153e-91
8.292374999999989882e+01 -2.427593405710680275e-91
8.313749999999990337e+01 -2.457474546745565927e-91
8.335124999999990791e+01 -1.939183292898969601e-91
8.356499999999991246e+01 -7.094350223803677095e-92
8.377874999999991701e+01 1.316421205779308969e-91
8.399249999999989313e+01 4.084902195523178770e-91
8.420624999999989768e+01 7.345887274527048835e-91
8.441999999999990223e+01 1.060886780501767044e-90
8.463374999999990678e+01 1.313136256760325840e-90
8.484749999999991132e+01 1.395850376463334951e-90
8.506124999999991587e+01 1.203092361751462417e-90
8.527499999999989200e+01 6.371397507723345993e-91
8.548874999999989654e+01 -3.651707931841708571e-91
8.570249999999990109e+01 -1.800440275868801157e-90
8.591624999999990564e+01 -3.565369863332289769e-90
8.612999999999991019e+01 -5.428917307480236536e-90
8.634374999999991473e+01 -7.019025890187874575e-90
8.655749999999989086e+01 -7.834370251502611525e-90
8.677124999999989541e+01 -7.291289751646055271e-90
8.698499999999989996e+01 -4.813391175458839561e-90
8.719874999999990450e+01 3.443722360009216137e-92
8.741249999999990905e+01 7.374933588138666635e-90
8.762624999999991360e+01 1.682972638963002616e-89
8.783999999999991815e+01 2.734637382570400651e-89
8.805374999999989427e+01 3.708831743608729125e-89
8.826749999999989882e+01 4.344513579111943817e-89
8.848124999999990337e+01 4.322315749916905318e-89
8.869499999999990791e+01 3.306703995854786499e-89
8.890874999999991246e+01 1.013711683412675504e-89
8.912249999999991701e+01 -2.697761252623110147e-89
8.933624999999989313e+01 -7.719496575172718278e-89
8.954999999999989768e+01 -1.358862709229754378e-88
8.976374999999990223e+01 -1.940801640900769127e-88
8.997749999999990678e+01 -2.382405048725386003e-88
9.019124999999991132e+01 -2.509717847061044847e-88
9.040499999999991587e+01 -2.129799898855333259e-88
9.061874999999989200e+01 -1.065023096432462251e-88
9.083249999999989654e+01 7.980623815114964051e-89
9.104624999999990109e+01 3.448847866550578257e-88
9.125999999999990564e+01 6.689785340227336495e-88
9.147374999999991019e+01 1.008350988504948993e-87
9.168749999999991473e+01 1.292760817843148969e-87
9.190124999999989086e+01 1.427767462585329705e-87
9.211499999999989541e+01 1.303904881337913292e-87
9.232874999999989996e+01 8.142417337774638211e-88
9.254249999999990450e+01 -1.193180267414999930e-88
9.275624999999990905e+01 -1.512520706811035992e-87
9.296999999999991360e+01 -3.282097556161124916e-87
9.318374999999988972e+01 -5.212950887497971580e-87
9.339749999999989427e+01 -6.939045320739132926e-87
9.361124999999989882e+01 -7.949881358612825185e-87
9.382499999999990337e+01 -7.634679824650842190e-87
9.403874999999990791e+01 -5.373856917997741018e-87
9.425249999999991246e+01 -6.811185629223940608e-88
9.446624999999988859e+01 6.610932952383815122e-87
9.467999999999989313e+01 1.614311802543369902e-86
9.489374999999989768e+01 2.683817605902244877e-86
9.510749999999990223e+01 3.678018895192420438e-86
9.532124999999990678e+01 4.323162605722018784e-86
9.553499999999991132e+01 4.285669510465289761e-86
9.574874999999988745e+01 3.220588383455359765e-86
9.596249999999989200e+01 8.481948250296183924e-87
9.617624999999989654e+01 -2.945039865183662930e-86
9.638999999999990109e+01 -7.992828522395082749e-86
9.660374999999990564e+01 -1.374377098107037576e-85
9.681749999999991019e+01 -1.919431808401457412e-85
9.703124999999988631e+01 -2.289622704081172015e-85
9.724499999999989086e+01 -2.307539028265518841e-85
9.745874999999989541e+01 -1.789081240659297836e-85
9.767249999999989996e+01 -5.843079751734439307e-86
9.788624999999990450e+01 1.369015382101506110e-85
9.809999999999990905e+01 3.985687649105367398e-85
9.831374999999988518e+01 6.978550902391111257e-85
9.852749999999988972e+01 9.825124017593017258e-85
9.874124999999989427e+01 1.177429363251115682e-84
9.895499999999989882e+01 1.191176621332100655e-84
9.916874999999990337e+01 9.298068895306305168e-85
9.938249999999990791e+01 3.182076044311714679e-85
9.959624999999988404e+01 -6.723970778003478078e-85
9.980999999999988859e+01 -1.994409953767738803e-84
1.000237499999998931e+02 -3.497336309813566653e-84
1.002374999999998977e+02 -4.912975538322459629e-84
1.004512499999999022e+02 -5.861746859374344096e-84
1.006649999999999068e+02 -5.889066287805193966e-84
1.008787499999998829e+02 -4.537749921119274345e-84
1.010924999999998875e+02 -1.456556523271145514e-84
1.013062499999998920e+02 3.463788934587219714e-84
1.015199999999998965e+02 9.946690866396181128e-84
1.017337499999999011e+02 1.720897088268003545e-83
1.019474999999999056e+02 2.390385462683756816e-83
1.021612499999999102e+02 2.817224449762293855e-83
1.023749999999998863e+02 2.784199800038003122e-83
1.025887499999998909e+02 2.079800384990163157e-83
1.028024999999998954e+02 5.515231758611803192e-84
1.030162499999999000e+02 -1.829639920310139865e-83
1.032299999999999045e+02 -4.903795798702923193e-83
1.034437499999999091e+02 -8.271171667120875511e-83
1.036574999999998852e+02 -1.127465853452460657e-82
1.038712499999998897e+02 -1.303583181794773238e-82
1.040849999999998943e+02 -1.256081259344357797e-82
1.042987499999998988e+02 -8.923082770829677864e-83
1.045124999999999034e+02 -1.515079101208796490e-83
1.047262499999999079e+02 9.660009954747100413e-83
1.049399999999998840e+02 2.370772571979824370e-82
1.051537499999998886e+02 3.864556373143889926e-82
1.053674999999998931e+02 5.137547428661713892e-82
1.055812499999998977e+02 5.790952085130354660e-82
1.057949999999999022e+02 5.390988902362145642e-82
1.060087499999999068e+02 3.555665489685963520e-82
1.062224999999998829e+02 6.840679389137174412e-84
1.064362499999998875e+02 -4.996503049915374938e-82
1.066499999999998920e+02 -1.116128764324373237e-81
1.068637499999998965e+02 -1.747742213118335044e-81
1.070774999999999011e+02 -2.253997426991717693e-81
1.072912499999999056e+02 -2.461632736822048919e-81
1.075049999999998818e+02 -2.190923174056083519e-81
1.077187499999998863e+02 -1.295083475711862675e-81
1.079324999999998909e+02 2.908401107664810379e-82
1.081462499999998954e+02 2.499041818284579706e-81
1.083599999999999000e+02 5.087180634617299567e-81
1.085737499999999045e+02 7.619627011313330683e-81
1.087874999999998806e+02 9.486126337891723492e-81
1.090012499999998852e+02 9.969580425395981333e-81
1.092149999999998897e+02 8.367997822987549377e-81
1.094287499999998943e+02 4.164953247452922186e-81
1.096424999999998988e+02 -2.771040932246209288e-81
1.098562499999999034e+02 -1.199304403173867618e-80
1.100699999999998795e+02 -2.233621375194567113e-80
1.102837499999998840e+02 -3.188799316437446147e-80
1.104974999999998886e+02 -3.812100497632467239e-80
1.107112499999998931e+02 -3.822537167901285778e-80
1.109249999999998977e+02 -2.964527064037139690e-80
1.111387499999999022e+02 -1.077817134682494051e-80
1.113524999999998784e+02 1.826053200774652640e-80
1.115662499999998829e+02 5.496043373283505648e-80
1.117799999999998875e+02 9.402173559766490424e-80
1.119937499999998920e+02 1.274518664456047596e-79
1.122074999999998965e+02 1.453303458521943375e-79
1.124212499999999011e+02 1.373332198778879148e-79
1.126349999999998772e+02 9.496577019495775017e-80
1.128487499999998818e+02 1.426391061451090357e-80
1.130624999999998863e+02 -1.014827126425130772e-79
1.132762499999998909e+02 -2.396174665945602854e-79
1.134899999999998954e+02 -3.773531709722853202e-79
1.137037499999999000e+02 -4.830734651000920703e-79
1.139174999999998761e+02 -5.202093896608744126e-79
1.141312499999998806e+02 -4.537932263571457242e-79
1.143449999999998852e+02 -2.591970055767740108e-79
1.145587499999998897e+02 6.814922358264204956e-80
1.147724999999998943e+02 5.039696909292736032e-79
1.149862499999998988e+02 9.897221326211012986e-79
1.151999999999998749e+02 1.433129374675276891e-78
1.154137499999998795e+02 1.716836289087090579e-78
1.156274999999998840e+02 1.716270024420363079e-78
1.158412499999998886e+02 1.326000378051141983e-78
1.160549999999998931e+02 4.915926323346109245e-79
1.162687499999998977e+02 -7.585289691762597653e-79
1.164824999999999022e+02 -2.288798212279683532e-78
1.166962499999998784e+02 -3.848484649898019451e-78
1.169099999999998829e+02 -5.088018719461168313e-78
1.171237499999998875e+02 -5.604964380042329858e-78
1.173374999999998920e+02 -5.019788701390118940e-78
1.175512499999998965e+02 -3.074406068892081240e-78
1.177649999999999011e+02 2.617424390130385810e-79
1.179787499999998772e+02 4.700960359447699753e-78
1.181924999999998818e+02 9.589771542675572037e-78
1.184062499999998863e+02 1.393247342882850033e-77
1.186199999999998909e+02 1.650678190057905565e-77
1.188337499999998954e+02 1.607786876327802552e-77
1.190474999999999000e+02 1.169512800317917282e-77
1.192612499999998761e+02 3.029442583568668362e-78
1.194749999999998806e+02 -9.317589419791710708e-78
1.196887499999998852e+02 -2.362036873005726096e-77
1.199024999999998897e+02 -3.704464671150863880e-77
1.201162499999998943e+02 -4.594750417182303382e-77
1.203299999999998988e+02 -4.649545747287808984e-77
1.205437499999998749e+02 -3.556647859253890070e-77
1.207574999999998795e+02 -1.181595517127276697e-77
1.209712499999998840e+02 2.330254802072606245e-77
1.211849999999998886e+02 6.484203831160579507e-77
1.213987499999998931e+02 1.043004187016942189e-76
1.216124999999998977e+02 1.304601562862744970e-76
1.218262499999998738e+02 1.312715221106089322e-76
1.220399999999998784e+02 9.670845771287589006e-77
1.222537499999998829e+02 2.224444034893306075e-77
1.224674999999998875e+02 -8.770995612206980791e-77
1.226812499999998920e+02 -2.173268077207003052e-76
1.228949999999998965e+02 -3.388867922520575715e-76
1.231087499999998727e+02 -4.152716449062147849e-76
1.233224999999998772e+02 -4.060084360030889446e-76
1.235362499999998818e+02 -2.767671162615381691e-76
1.237499999999998863e+02 -1.126745739962783911e-77
1.239637499999998909e+02 3.765208661390995527e-76
1.241774999999998954e+02 8.329775485146124144e-76
1.243912499999998715e+02 1.261910734806585918e-75
1.246049999999998761e+02 1.531680681652731215e-75
1.248187499999998806e+02 1.494845402281293589e-75
1.250324999999998852e+02 1.020614045277255723e-75
1.252462499999998897e+02 3.719104367884583859e-77
1.254599999999998943e+02 -1.422729465305477152e-75
1.256737499999998704e+02 -3.183790737149707216e-75