2.024999999999579359e-01 1.630459475435255002e-103
4.162499999999482725e-01 1.207397489990813874e-103
6.299999999999528200e-01 -9.514461205156905267e-105
8.437499999999573674e-01 -2.555737461669915487e-103
1.057499999999947704e+00 -6.238220842128874557e-103
1.271249999999952252e+00 -1.077236498471085825e-102
1.484999999999956799e+00 -1.511330223654765397e-102
1.698749999999947136e+00 -1.735768260829342978e-102
1.912499999999951683e+00 -1.474024207259017846e-102
2.126249999999956231e+00 -3.970460820549814835e-103
2.339999999999946567e+00 1.792758374737585445e-102
2.553749999999951115e+00 5.216751342258336402e-102
2.767499999999955662e+00 9.619040509186970041e-102
2.981249999999945999e+00 1.413972820392136426e-101
3.194999999999950546e+00 1.712902724592929011e-101
3.408749999999955094e+00 1.610931428064994613e-101
3.622499999999945430e+00 8.024999925776948549e-102
3.836249999999949978e+00 -1.007385343168547977e-101
4.049999999999954525e+00 -3.981337524613898218e-101
4.263749999999944862e+00 -7.976344560947906153e-101
4.477499999999949409e+00 -1.234239166007839341e-100
4.691249999999953957e+00 -1.574603467273976154e-100
4.904999999999944293e+00 -1.610593053477428688e-100
5.118749999999948841e+00 -1.075592449778011454e-100
5.332499999999953388e+00 3.040412745288885096e-101
5.546249999999943725e+00 2.713114484172114329e-100
5.759999999999948272e+00 6.107101773617007410e-100
5.973749999999952820e+00 1.004308184651745322e-99
6.187499999999943157e+00 1.352137230898208399e-99
6.401249999999947704e+00 1.490416857805984939e-99
6.614999999999952252e+00 1.200150025273605836e-99
6.828749999999942588e+00 2.424780610580675379e-100
7.042499999999947136e+00 -1.571021258594611099e-99
7.256249999999951683e+00 -4.271099579281212598e-99
7.469999999999942020e+00 -7.596310131364489103e-99
7.683749999999946567e+00 -1.085790271459648818e-98
7.897499999999951115e+00 -1.285144828610432501e-98
8.111249999999941451e+00 -1.188202376073467619e-98
8.324999999999945999e+00 -5.980641776841556262e-99
8.538749999999950546e+00 6.618412507513929173e-99
8.752499999999940883e+00 2.670777802441832154e-98
8.966249999999945430e+00 5.309046788947426057e-98
9.179999999999949978e+00 8.148113231592698903e-98
9.393749999999940314e+00 1.036401198548718283e-97
9.607499999999944862e+00 1.072094842188382201e-97
9.821249999999949409e+00 7.682875079199774173e-98
1.003499999999993975e+01 -2.898092076038857413e-99
1.024874999999994429e+01 -1.422155555135797427e-97
1.046249999999994884e+01 -3.389143130301301527e-97
1.067624999999993918e+01 -5.698015585732334095e-97
1.088999999999994373e+01 -7.828896696322083958e-97
1.110374999999994827e+01 -8.934302144372898729e-97
1.131749999999993861e+01 -7.879267297267890786e-97
1.153124999999994316e+01 -3.406351909107104395e-97
1.174499999999994770e+01 5.537715289289167991e-97
1.195874999999993804e+01 1.930338376606705848e-96
1.217249999999994259e+01 3.690613745898360103e-96
1.238624999999994714e+01 5.537106414549392123e-96
1.259999999999993747e+01 6.925197317261219726e-96
1.281374999999994202e+01 7.060950493815791664e-96
1.302749999999994657e+01 4.978936878436792693e-96
1.324124999999995111e+01 -2.671467147362266156e-97
1.345499999999994145e+01 -9.281254581029411356e-96
1.366874999999994600e+01 -2.187819780513068230e-95
1.388249999999995055e+01 -3.656915192482430930e-95
1.409624999999994088e+01 -5.009799053805993048e-95
1.430999999999994543e+01 -5.721647719779917323e-95
1.452374999999994998e+01 -5.094498146569268775e-95
1.473749999999994031e+01 -2.358602593446168447e-95
1.495124999999994486e+01 3.129382663959747649e-95
1.516499999999994941e+01 1.158582379639902600e-94
1.537874999999993975e+01 2.242104053552382698e-94
1.559249999999994429e+01 3.384860306821584009e-94
1.580624999999994884e+01 4.260203712869537002e-94
1.601999999999993918e+01 4.392884533937189533e-94
1.623374999999994373e+01 3.206355254852078945e-94
1.644749999999994827e+01 1.369902991115539010e-95
1.666124999999993861e+01 -5.174014233584718484e-94
1.687499999999994316e+01 -1.261801779921223866e-93
1.708874999999994770e+01 -2.132069311443831391e-93
1.730249999999993804e+01 -2.938000379851740190e-93
1.751624999999994259e+01 -3.375155661909301247e-93
1.772999999999994714e+01 -3.042321358082481488e-93
1.794374999999993747e+01 -1.502673599021167221e-93
1.815749999999994202e+01 1.600426168823227048e-93
1.837124999999994657e+01 6.372225338390886496e-93
1.858499999999993690e+01 1.245671257719266420e-92
1.879874999999994145e+01 1.882913931463621652e-92
1.901249999999994600e+01 2.365978709024717466e-92
1.922624999999993634e+01 2.434244908919881106e-92
1.943999999999994088e+01 1.779223383737423001e-92
1.965374999999994543e+01 1.102048836481619302e-93
1.986749999999993577e+01 -2.740761894418649198e-92
2.008124999999994031e+01 -6.681433203905824935e-92
2.029499999999994486e+01 -1.121147291475049411e-91
2.050874999999993520e+01 -1.530434911106141542e-91
2.072249999999993975e+01 -1.737685403473936286e-91
2.093624999999994429e+01 -1.541484020536467584e-91
2.114999999999993463e+01 -7.319711041053947890e-92
2.136374999999993918e+01 8.487191230160348276e-92
2.157749999999994373e+01 3.222251937731863489e-91
2.179124999999993406e+01 6.177007590645652410e-91
2.200499999999993861e+01 9.180230225601939412e-91
2.221874999999994316e+01 1.133306248100805271e-90
2.243249999999993349e+01 1.141052974523900882e-90
2.264624999999993804e+01 8.029148158067293686e-91
2.285999999999994259e+01 -2.755638256989952909e-93
2.307374999999993292e+01 -1.332512369078815626e-90
2.328749999999993747e+01 -3.118427253356885945e-90
2.350124999999994202e+01 -5.109042629353801655e-90
2.371499999999993236e+01 -6.829083870737003523e-90
2.392874999999993690e+01 -7.582195167729227763e-90
2.414249999999994145e+01 -6.522993092829860012e-90
2.435624999999993179e+01 -2.819957203304796724e-90
2.456999999999993634e+01 4.083650214669943570e-90
2.478374999999994088e+01 1.412902487287938606e-89
2.499749999999993122e+01 2.627489389718436611e-89
2.521124999999993577e+01 3.819907217229707325e-89
2.542499999999994031e+01 4.620056592778217826e-89
2.563874999999993065e+01 4.545469195203506867e-89
2.585249999999993520e+01 3.076067170344473536e-89
2.606624999999993975e+01 -2.141459340266494172e-90
2.627999999999994429e+01 -5.473103819688516807e-89
2.649374999999993463e+01 -1.235738572366988329e-88
2.670749999999993918e+01 -1.983508228336350476e-88
2.692124999999994373e+01 -2.607272994640681082e-88
2.713499999999993406e+01 -2.848997471268717573e-88
2.734874999999993861e+01 -2.406610312248138790e-88
2.756249999999994316e+01 -9.958664152090384205e-89
2.777624999999993349e+01 1.556120494816846231e-88
2.798999999999993804e+01 5.194175466529774191e-88
2.820374999999994259e+01 9.515429617659569685e-88
2.841749999999993292e+01 1.367972188520381750e-87
2.863124999999993747e+01 1.639360033659692986e-87
2.884499999999994202e+01 1.601567101011911261e-87
2.905874999999993236e+01 1.082389185608990547e-87
2.927249999999993690e+01 -5.375582433524448836e-89
2.948624999999994145e+01 -1.845551019924214988e-87
2.969999999999993179e+01 -4.167116579440403538e-87
2.991374999999993634e+01 -6.668013065407611168e-87
3.012749999999994088e+01 -8.742459187055053234e-87
3.034124999999993122e+01 -9.553390949244709451e-87
3.055499999999993577e+01 -8.136114539696642171e-87
3.076874999999994031e+01 -3.597896717552877646e-87
3.098249999999993065e+01 4.588014896502109361e-87
3.119624999999993520e+01 1.622305890459627020e-86
3.140999999999993975e+01 3.002292929477654055e-86
3.162374999999993008e+01 4.335716759187985050e-86
3.183749999999993463e+01 5.221920424700212450e-86
3.205124999999993918e+01 5.156639170801183309e-86
3.226499999999992951e+01 3.614449602138564253e-86
3.247874999999993406e+01 1.839591298287837178e-87
3.269249999999993861e+01 -5.252372320824397446e-86
3.290624999999992895e+01 -1.231900365236657369e-85
3.311999999999993349e+01 -1.997356675516736350e-85
3.333374999999993804e+01 -2.642159928024287635e-85
3.354749999999992838e+01 -2.919332741112110224e-85
3.376124999999993292e+01 -2.545191755512057842e-85
3.397499999999993747e+01 -1.257665999900672864e-85
3.418874999999992781e+01 1.098809618693890745e-85
3.440249999999993236e+01 4.470685816925538115e-85
3.461624999999993690e+01 8.493714602986264772e-85
3.482999999999992724e+01 1.242124622204162594e-84
3.504374999999993179e+01 1.511891360350849076e-84
3.525749999999993634e+01 1.516387873814909165e-84
3.547124999999992667e+01 1.107873314694984636e-84
3.568499999999993122e+01 1.709206911837131758e-85
3.589874999999993577e+01 -1.328015067744099815e-84
3.611249999999992610e+01 -3.286510766351529108e-84
3.632624999999993065e+01 -5.420080691584427697e-84
3.653999999999993520e+01 -7.241182397386362843e-84
3.675374999999992554e+01 -8.082764818247628919e-84
3.696749999999993008e+01 -7.183993024461949062e-84
3.718124999999993463e+01 -3.848097709214496805e-84
3.739499999999992497e+01 2.332294621359247748e-84
3.760874999999992951e+01 1.120814256868713452e-83
3.782249999999993406e+01 2.181640799869095409e-83
3.803624999999993861e+01 3.220775442346500384e-83
3.824999999999994316e+01 3.945227583526072504e-83
3.846374999999991928e+01 3.991626544156130140e-83
3.867749999999992383e+01 2.987775702584179827e-83
3.889124999999992838e+01 6.491274985620122388e-84
3.910499999999993292e+01 -3.097809596810487167e-83
3.931874999999993747e+01 -7.984694481037121837e-83
3.953249999999994202e+01 -1.329502010780994485e-82
3.974624999999991815e+01 -1.782394195492719056e-82
3.995999999999992269e+01 -1.994960342207944234e-82
4.017374999999992724e+01 -1.785437060685224622e-82
4.038749999999993179e+01 -9.913387317129187207e-83
4.060124999999993634e+01 4.768704914101795304e-83
4.081499999999994088e+01 2.574213736418395731e-82
4.102874999999991701e+01 5.064358320231643570e-82
4.124249999999992156e+01 7.485255116061275903e-82
4.145624999999992610e+01 9.157965232151072014e-82
4.166999999999993065e+01 9.258191471923444109e-82
4.188374999999993520e+01 6.962954155385023353e-82
4.209749999999993975e+01 1.670842660134251072e-82
4.231124999999991587e+01 -6.726337965912063717e-82
4.252499999999992042e+01 -1.756763575238318434e-81
4.273874999999992497e+01 -2.921449629299964164e-81
4.295249999999992951e+01 -3.899910891445531054e-81
4.316624999999993406e+01 -4.342110877246888493e-81
4.337999999999993861e+01 -3.866290618004560589e-81
4.359374999999991473e+01 -2.144328174832748254e-81
4.380749999999991928e+01 9.851872060172107594e-82
4.402124999999992383e+01 5.392669217000477977e-81
4.423499999999992838e+01 1.054958446857632228e-80
4.444874999999993292e+01 1.547343859463890912e-80
4.466249999999993747e+01 1.876596654469410682e-80
4.487624999999991360e+01 1.877949126054994484e-80
4.508999999999991815e+01 1.392923170018510439e-80
4.530374999999992269e+01 3.139159221609492879e-81
4.551749999999992724e+01 -1.363235120091632126e-80
4.573124999999993179e+01 -3.488765686482988463e-80
4.594499999999993634e+01 -5.724877911059022421e-80
4.615874999999991246e+01 -7.544776454759107137e-80
4.637249999999991701e+01 -8.280792980648748485e-80
4.658624999999992156e+01 -7.232111910073325340e-80
4.679999999999992610e+01 -3.831831376094348181e-80
4.701374999999993065e+01 2.142682261272003227e-80
4.722749999999993520e+01 1.035111288094886877e-79
4.744124999999993975e+01 1.971667429469641020e-79
4.765499999999991587e+01 2.836425204905208271e-79
4.786874999999992042e+01 3.373819270225524594e-79
4.808249999999992497e+01 3.295193389352864262e-79
4.829624999999992951e+01 2.338478483487125280e-79
4.850999999999993406e+01 3.483226278447803126e-80
4.872374999999993861e+01 -2.634924133153718004e-79
4.893749999999991473e+01 -6.296604895642288890e-79
4.915124999999991928e+01 -1.000482119180658885e-78
4.936499999999992383e+01 -1.283060267473443543e-78
4.957874999999992838e+01 -1.365449357224235916e-78
4.979249999999993292e+01 -1.137071989930902147e-78
5.000624999999993747e+01 -5.179501064820745060e-79
5.021999999999991360e+01 5.069350070264700202e-79
5.043374999999991815e+01 1.854844276488086277e-78
5.064749999999992269e+01 3.323323161236036795e-78
5.086124999999992724e+01 4.589662017693471143e-78
5.107499999999993179e+01 5.241434325975109838e-78
5.128874999999993634e+01 4.843889871819191563e-78
5.150249999999991246e+01 3.042837269666090968e-78
5.171624999999991701e+01 -3.083083124094177578e-79
5.192999999999992156e+01 -5.020014961622498564e-78
5.214374999999992610e+01 -1.046976351045290481e-77
5.235749999999993065e+01 -1.557613178174315646e-77
5.257124999999993520e+01 -1.888166108893976074e-77
5.278499999999991132e+01 -1.877013255031804109e-77
5.299874999999991587e+01 -1.381949390429740785e-77
5.321249999999992042e+01 -3.256248445070157576e-78
5.342624999999992497e+01 1.256473357515856252e-77
5.363999999999992951e+01 3.177090283179341634e-77
5.385374999999993406e+01 5.081548452608461041e-77
5.406749999999991019e+01 6.469574729614882925e-77
5.428124999999991473e+01 6.764976037135351085e-77
5.449499999999991928e+01 5.435237664009155981e-77
5.470874999999992383e+01 2.150652075589510350e-77
5.492249999999992838e+01 -3.042514113251673058e-77
5.513624999999993292e+01 -9.575113732232383107e-77
5.534999999999990905e+01 -1.628514879787234514e-76
5.556374999999991360e+01 -2.147660959028857214e-76
5.577749999999991815e+01 -2.314667445305673418e-76
5.599124999999992269e+01 -1.939241429731664677e-76
5.620499999999992724e+01 -8.964343062950414467e-77
5.641874999999993179e+01 8.119849180734775620e-77
5.663249999999990791e+01 3.004198905232719742e-76
5.684624999999991246e+01 5.291027885025407765e-76
5.705999999999991701e+01 7.093319326587466897e-76
5.727374999999992156e+01 7.718643462491862813e-76
5.748749999999992610e+01 6.502027253179506365e-76
5.770124999999993065e+01 2.999971689614254736e-76
5.791499999999990678e+01 -2.792327151840445905e-76
5.812874999999991132e+01 -1.025017416733248547e-75
5.834249999999991587e+01 -1.801909185349563727e-75
5.855624999999992042e+01 -2.407237290177463032e-75
5.876999999999992497e+01 -2.597987103465113991e-75
5.898374999999992951e+01 -2.140666479716717260e-75
5.919749999999990564e+01 -8.804966916792698842e-76
5.941124999999991019e+01 1.180694733931167959e-75
5.962499999999991473e+01 3.815613058163877279e-75
5.983874999999991928e+01 6.534771771177224297e-75
6.005249999999992383e+01 8.606389057975248350e-75
6.026624999999992838e+01 9.152629760356603880e-75
6.047999999999990450e+01 7.329602406237330969e-75
6.069374999999990905e+01 2.578684757025296557e-75
6.090749999999991360e+01 -5.088493782004482198e-75
6.112124999999991815e+01 -1.483520789827047481e-74
6.133499999999992269e+01 -2.485894944198691329e-74
6.154874999999992724e+01 -3.245507905249399858e-74
6.176249999999993179e+01 -3.435916697627935498e-74
6.197624999999990791e+01 -2.739911817026606318e-74
6.218999999999991246e+01 -9.417142262663449858e-75
6.240374999999991701e+01 1.967012961672145516e-74
6.261749999999992156e+01 5.690175850991310008e-74
6.283124999999992610e+01 9.569871552805576134e-74
6.304499999999993065e+01 1.260208780173923653e-73
6.325874999999990678e+01 1.355402762325112944e-73
6.347249999999991132e+01 1.119677658804558944e-73
6.368624999999991587e+01 4.641930321154344352e-74
6.389999999999992042e+01 -6.262323148758111496e-74
6.411374999999992497e+01 -2.055593305652394232e-73
6.432749999999992951e+01 -3.592275411535972645e-73
6.454124999999990564e+01 -4.870117920368825237e-73
6.475499999999991019e+01 -5.425993165029401357e-73
6.496874999999991473e+01 -4.780045278132671763e-73
6.518249999999991928e+01 -2.556079550086645811e-73
6.539624999999992383e+01 1.372159326255202612e-73
6.560999999999992838e+01 6.736160276998645503e-73
6.582374999999990450e+01 1.276812800186948072e-72
6.603749999999990905e+01 1.818188070206024550e-72
6.625124999999991360e+01 2.128134824937443253e-72
6.646499999999991815e+01 2.022361630165366370e-72
6.667874999999992269e+01 1.343465602704777134e-72
6.689249999999992724e+01 1.352840791107383357e-74
6.710624999999990337e+01 -1.911187913817089822e-72
6.731999999999990791e+01 -4.196706900940079082e-72
6.753374999999991246e+01 -6.414956602447516597e-72
6.774749999999991701e+01 -7.970272691644275428e-72
6.796124999999992156e+01 -8.180088461131623090e-72
6.817499999999992610e+01 -6.411929602354161667e-72
6.838874999999990223e+01 -2.265289411608371760e-72
6.860249999999990678e+01 4.229253071243183548e-72
6.881624999999991132e+01 1.243712886941036216e-71
6.902999999999991587e+01 2.102775822554848727e-71
6.924374999999992042e+01 2.801994569471939682e-71
6.945749999999992497e+01 3.100947100532259265e-71
6.967124999999990109e+01 2.759578266500193625e-71
6.988499999999990564e+01 1.598131472618855416e-71
7.009874999999991019e+01 -4.337149639959959588e-72
7.031249999999991473e+01 -3.192100924796000243e-71
7.052624999999991928e+01 -6.296533858363498087e-71
7.073999999999992383e+01 -9.129156736889240211e-71
7.095374999999989996e+01 -1.089239284566892449e-70
7.116749999999990450e+01 -1.073360280281285902e-70
7.138124999999990905e+01 -7.932076941963907000e-71
7.159499999999991360e+01 -2.126378419391527742e-71
7.180874999999991815e+01 6.458448420652160536e-71
7.202249999999992269e+01 1.683980220043009694e-70
7.223624999999989882e+01 2.722607243617005500e-70
7.244999999999990337e+01 3.514284759173424684e-70
7.266374999999990791e+01 3.777287382164581281e-70
7.287749999999991246e+01 3.250668529133627890e-70
7.309124999999991701e+01 1.764775683960922868e-70
7.330499999999992156e+01 -6.842874942820641613e-71
7.351874999999989768e+01 -3.872976934572330232e-70
7.373249999999990223e+01 -7.321122130757325373e-70
7.394624999999990678e+01 -1.031416223075324189e-69
7.415999999999991132e+01 -1.198994678428852684e-69
7.437374999999991587e+01 -1.149210146516494284e-69
7.458749999999992042e+01 -8.176293636093058330e-70
7.480124999999992497e+01 -1.837829062518133457e-70
7.501499999999990109e+01 7.087447814756391070e-70
7.522874999999990564e+01 1.740733726631611082e-69
7.544249999999991019e+01 2.720040422881553921e-69
7.565624999999991473e+01 3.402869837124604738e-69
7.586999999999991928e+01 3.534750485026361382e-69
7.608374999999992383e+01 2.907848316015503532e-69
7.629749999999989996e+01 1.426017305070105811e-69
7.651124999999990450e+01 -8.359080283131458912e-70
7.672499999999990905e+01 -3.595247030393371959e-69
7.693874999999991360e+01 -6.363734984789649895e-69
7.715249999999991815e+01 -8.501381200991864711e-69
7.736624999999992269e+01 -9.325476868468601993e-69
7.757999999999989882e+01 -8.265362377747340502e-69
7.779374999999990337e+01 -5.038535033401181455e-69
7.800749999999990791e+01 1.902358283390601816e-70
7.822124999999991246e+01 6.713846137435230908e-69
7.843499999999991701e+01 1.329825776799074859e-68
7.864874999999992156e+01 1.834151494335803410e-68
7.886249999999989768e+01 2.018260127809770692e-68
7.907624999999990223e+01 1.752798431301485235e-68
7.928999999999990678e+01 9.920006348321223946e-69
7.950374999999991132e+01 -1.867814035445398007e-69
7.971749999999991587e+01 -1.564557075715597337e-68
7.993124999999992042e+01 -2.796130785730586556e-68
8.014499999999989654e+01 -3.467784772196405441e-68
8.035874999999990109e+01 -3.196720768417243998e-68
8.057249999999990564e+01 -1.759659520643529660e-68
8.078624999999991019e+01 7.753984157774462556e-69
8.099999999999991473e+01 3.951714133286557430e-68
8.121374999999991928e+01 6.903675265510987858e-68
8.142749999999989541e+01 8.452680242809263835e-68
8.164124999999989996e+01 7.340647219396712367e-68
8.185499999999990450e+01 2.592334422208786962e-68
8.206874999999990905e+01 -6.043226969611616960e-68
8.228249999999991360e+01 -1.766632070384818508e-67
8.249624999999991815e+01 -2.994648874253253473e-67
8.270999999999989427e+01 -3.913679372677992803e-67
8.292374999999989882e+01 -4.051304850493343834e-67
8.313749999999990337e+01 -2.930756373915004373e-67
8.335124999999990791e+01 -2.099890185191555401e-68
8.356499999999991246e+01 4.151680223791866453e-67
8.377874999999991701e+01 9.733270447787116233e-67
8.399249999999989313e+01 1.554557713979248706e-66
8.420624999999989768e+01 2.003242832541569510e-66
8.441999999999990223e+01 2.122893579415484329e-66
8.463374999999990678e+01 1.710577838874389441e-66
8.484749999999991132e+01 6.091903198548593195e-67
8.506124999999991587e+01 -1.228262804681779879e-66
8.527499999999989200e+01 -3.673940169594359850e-66
8.548874999999989654e+01 -6.376811525585988595e-66
8.570249999999990109e+01 -8.750634941698564661e-66
8.591624999999990564e+01 -1.001760290811708003e-65
8.612999999999991019e+01 -9.321157407776774093e-66
8.634374999999991473e+01 -5.909699786663343150e-66
8.655749999999989086e+01 6.243149480116369058e-67
8.677124999999989541e+01 1.008606768022836656e-65
8.698499999999989996e+01 2.145736006447748856e-65
8.719874999999990450e+01 3.278423974139528136e-65
8.741249999999990905e+01 4.124797415159647568e-65
8.762624999999991360e+01 4.348040596545130918e-65
8.783999999999991815e+01 3.615035690142170930e-65
8.805374999999989427e+01 1.679261335790857139e-65
8.826749999999989882e+01 -1.521992453721936276e-65
8.848124999999990337e+01 -5.773634358770183456e-65
8.869499999999990791e+01 -1.051602054168105748e-64
8.890874999999991246e+01 -1.483278970569545544e-64
8.912249999999991701e+01 -1.751876763403255479e-64
8.933624999999989313e+01 -1.724472775722255021e-64
8.954999999999989768e+01 -1.281961180541764952e-64
8.976374999999990223e+01 -3.528010705201765636e-65
8.997749999999990678e+01 1.050595200909229310e-64
9.019124999999991132e+01 2.800294931432323673e-64
9.040499999999991587e+01 4.635407300114975312e-64
9.061874999999989200e+01 6.168484343695628423e-64
9.083249999999989654e+01 6.923770942047188265e-64
9.104624999999990109e+01 6.411095274347379895e-64
9.125999999999990564e+01 4.232456712348347132e-64
9.147374999999991019e+01 2.097040426486884182e-65
9.168749999999991473e+01 -5.487644071802675539e-64
9.190124999999989086e+01 -1.224352053647697739e-63
9.211499999999989541e+01 -1.895907293694341301e-63
9.232874999999989996e+01 -2.411148094952094007e-63
9.254249999999990450e+01 -2.593111906349274522e-63
9.275624999999990905e+01 -2.270252332118693285e-63
9.296999999999991360e+01 -1.316884444585181193e-63
9.318374999999988972e+01 3.011410721490977913e-64
9.339749999999989427e+01 2.483749905695343289e-63
9.361124999999989882e+01 4.967569741177717664e-63
9.382499999999990337e+01 7.322037453578220519e-63
9.403874999999990791e+01 8.980974581492329162e-63
9.425249999999991246e+01 9.315886724911893208e-63
9.446624999999988859e+01 7.750351231515646829e-63
9.467999999999989313e+01 3.905587702732049104e-63
9.489374999999989768e+01 -2.243163821535850097e-63
9.510749999999990223e+01 -1.022963719737403364e-62
9.532124999999990678e+01 -1.901584339800970248e-62
9.553499999999991132e+01 -2.700576017717774951e-62
9.574874999999988745e+01 -3.218475991559758220e-62
9.596249999999989200e+01 -3.240019691875713147e-62
9.617624999999989654e+01 -2.577362714467087526e-62
9.638999999999990109e+01 -1.120336958028208607e-62
9.660374999999990564e+01 1.111801804092086989e-62
9.681749999999991019e+01 3.927678342825101971e-62
9.703124999999988631e+01 6.942497888949980117e-62
9.724499999999989086e+01 9.590280884051555781e-62
9.745874999999989541e+01 1.117891010692088114e-61
9.767249999999989996e+01 1.099143580446850452e-61
9.788624999999990450e+01 8.428493543550651194e-62
9.809999999999990905e+01 3.176207556041562623e-62
9.831374999999988518e+01 -4.626856686800047060e-62
9.852749999999988972e+01 -1.425909784142865537e-61
9.874124999999989427e+01 -2.436166843504582021e-61
9.895499999999989882e+01 -3.299849182269952368e-61
9.916874999999990337e+01 -3.785750803181787856e-61
9.938249999999990791e+01 -3.659998014027145465e-61
9.959624999999988404e+01 -2.733624061550683812e-61
9.980999999999988859e+01 -9.172641136822831683e-62
1.000237499999998931e+02 1.725907913354814597e-61
1.002374999999998977e+02 4.940531255057189263e-61
1.004512499999999022e+02 8.265396341480810374e-61
1.006649999999999068e+02 1.105741186232918249e-60
1.008787499999998829e+02 1.256104440872041621e-60
1.010924999999998875e+02 1.202439655084366496e-60
1.013062499999998920e+02 8.853944323057236309e-61
1.015199999999998965e+02 2.789393008285306466e-61
1.017337499999999011e+02 -5.930185835530325905e-61
1.019474999999999056e+02 -1.644562222612329778e-60
1.021612499999999102e+02 -2.724201110994550075e-60
1.023749999999998863e+02 -3.623382194515992842e-60
1.025887499999998909e+02 -4.099382711484793709e-60
1.028024999999998954e+02 -3.912754686427879682e-60
1.030162499999999000e+02 -2.876616429224467496e-60
1.032299999999999045e+02 -9.118121193258850084e-61
1.034437499999999091e+02 1.901187142467459695e-60
1.036574999999998852e+02 5.285117113405416309e-60
1.038712499999998897e+02 8.755787962037949181e-60
1.040849999999998943e+02 1.164992030705377853e-59
1.042987499999998988e+02 1.319789610731153673e-59
1.045124999999999034e+02 1.264170177939345482e-59
1.047262499999999079e+02 9.389448516810721403e-60
1.049399999999998840e+02 3.187783750641206382e-60
1.051537499999998886e+02 -5.716128371005757832e-60
1.053674999999998931e+02 -1.645853506099908464e-59
1.055812499999998977e+02 -2.752687154694604883e-59
1.057949999999999022e+02 -3.684509884118823498e-59
1.060087499999999068e+02 -4.199807763867392274e-59
1.062224999999998829e+02 -4.059603737222950585e-59
1.064362499999998875e+02 -3.075298840443677939e-59
1.066499999999998920e+02 -1.162207773604539019e-59
1.068637499999998965e+02 1.609871467837900734e-59
1.070774999999999011e+02 4.979930361226165311e-59
1.072912499999999056e+02 8.484541281768484829e-59
1.075049999999998818e+02 1.148261707229936792e-58
1.077187499999998863e+02 1.322292549058480692e-58
1.079324999999998909e+02 1.295498156924557732e-58
1.081462499999998954e+02 1.007567804493442215e-58
1.083599999999999000e+02 4.294590721530450933e-59
1.085737499999999045e+02 -4.208224097192619055e-59
1.087874999999998806e+02 -1.466506754443217368e-58
1.090012499999998852e+02 -2.567992323772243038e-58
1.092149999999998897e+02 -3.529674865479106287e-58
1.094287499999998943e+02 -4.119845268119065258e-58
1.096424999999998988e+02 -4.103986625629341183e-58
1.098562499999999034e+02 -3.289308014921595492e-58
1.100699999999998795e+02 -1.575482977327714675e-58
1.102837499999998840e+02 9.962483332399183866e-59
1.104974999999998886e+02 4.205639507939255693e-58
1.107112499999998931e+02 7.638626569360605270e-58
1.109249999999998977e+02 1.070522732185953153e-57
1.111387499999999022e+02 1.269711919775910859e-57
1.113524999999998784e+02 1.288641259871235996e-57
1.115662499999998829e+02 1.065966301310338559e-57
1.117799999999998875e+02 5.672472599512017651e-58
1.119937499999998920e+02 -1.998585481102174716e-58
1.122074999999998965e+02 -1.173684045306958289e-57
1.124212499999999011e+02 -2.233252491731283346e-57
1.126349999999998772e+02 -3.202702873065694084e-57
1.128487499999998818e+02 -3.867663101459833339e-57
1.130624999999998863e+02 -4.004194832467165641e-57
1.132762499999998909e+02 -3.418711605730927857e-57
1.134899999999998954e+02 -1.994659011058948497e-57
1.137037499999999000e+02 2.608775224336097516e-58
1.139174999999998761e+02 3.179602845986429401e-57
1.141312499999998806e+02 6.413520493640814715e-57
1.143449999999998852e+02 9.445041235175052995e-57
1.145587499999998897e+02 1.163270412630359353e-56
1.147724999999998943e+02 1.229488373072219632e-56
1.149862499999998988e+02 1.082731811764573487e-56
1.151999999999998749e+02 6.842518253850585121e-57
1.154137499999998795e+02 3.112199178934568458e-58
1.156274999999998840e+02 -8.320508644811681594e-57
1.158412499999998886e+02 -1.806841236379067552e-56
1.160549999999998931e+02 -2.743024417807598529e-56
1.162687499999998977e+02 -3.451084033395939394e-56
1.164824999999999022e+02 -3.726062358655937778e-56
1.166962499999998784e+02 -3.381707879694233671e-56
1.169099999999998829e+02 -2.291590306544832007e-56
1.171237499999998875e+02 -4.315040704540231748e-57
1.173374999999998920e+02 2.084503963105762718e-56
1.175512499999998965e+02 4.983278274923545438e-56
1.177649999999999011e+02 7.835467363624065082e-56
1.179787499999998772e+02 1.008890812850432334e-55
1.181924999999998818e+02 1.113543997902815341e-55
1.184062499999998863e+02 1.040866386483774396e-55
1.186199999999998909e+02 7.503542228662105592e-56
1.188337499999998954e+02 2.301843096227315691e-56
1.190474999999999000e+02 -4.918508525570176253e-56
1.192612499999998761e+02 -1.341568264616136649e-55
1.194749999999998806e+02 -2.198313048211310389e-55
1.196887499999998852e+02 -2.903601155023183037e-55
1.199024999999998897e+02 -3.279480248519153079e-55
1.201162499999998943e+02 -3.156068652262682549e-55
1.203299999999998988e+02 -2.405842080108234374e-55
1.205437499999998749e+02 -9.802426216914927868e-56
1.207574999999998795e+02 1.057570758365356819e-55
1.209712499999998840e+02 3.511124322829116220e-55
1.211849999999998886e+02 6.047550535116004761e-55
1.213987499999998931e+02 8.219104206943289169e-55
1.216124999999998977e+02 9.512539098963987203e-55
1.218262499999998738e+02 9.425358522165600444e-55
1.220399999999998784e+02 7.562635509316685663e-55
1.222537499999998829e+02 3.742397899163949620e-55
1.224674999999998875e+02 -1.907553503808578287e-55
1.226812499999998920e+02 -8.881953332508583522e-55
1.228949999999998965e+02 -1.628065865619818605e-54
1.231087499999998727e+02 -2.285948763393245934e-54
1.233224999999998772e+02 -2.715982945585072975e-54
1.235362499999998818e+02 -2.771596604564346893e-54
1.237499999999998863e+02 -2.332430173792225190e-54
1.239637499999998909e+02 -1.334261493977738425e-54
1.241774999999998954e+02 2.027371941695142263e-55
1.243912499999998715e+02 2.153124529680717959e-54
1.246049999999998761e+02 4.278697612309778823e-54
1.248187499999998806e+02 6.239639181482056631e-54
1.250324999999998852e+02 7.627632538730453936e-54
1.252462499999998897e+02 8.021173649188772227e-54
1.254599999999998943e+02 7.059279698235753897e-54
1.256737499999998704e+02 4.525310027281800913e-54
1.258874999999998749e+02 4.283770600293597937e-55
1.261012499999998795e+02 -4.933316784213814165e-54
1.263149999999998840e+02 -1.094403373819654821e-53
1.265287499999998886e+02 -1.669215200626317267e-53
1.267424999999998931e+02 -2.105225148449409276e-53