2.024999999999579359e-01 5.913250217065254866e-154
4.162499999999482725e-01 5.067588199628633673e-154
6.299999999999528200e-01 2.346925965196965159e-155
8.437499999999573674e-01 -1.121298320259501890e-153
1.057499999999947704e+00 -3.170198598532544042e-153
1.271249999999952252e+00 -6.183787330263186265e-153
1.484999999999956799e+00 -9.766436900588531197e-153
1.698749999999947136e+00 -1.268545093683485002e-152
1.912499999999951683e+00 -1.245472025908489339e-152
2.126249999999956231e+00 -5.066567697861370419e-153
2.339999999999946567e+00 1.478828579172780754e-152
2.553749999999951115e+00 5.250182607167349232e-152
2.767499999999955662e+00 1.107096573438461258e-151
2.981249999999945999e+00 1.842980381553071882e-151
3.194999999999950546e+00 2.532134985498367156e-151
3.408749999999955094e+00 2.741688241921147515e-151
3.622499999999945430e+00 1.743261701055822750e-151
3.836249999999949978e+00 -1.471276893498986611e-151
4.049999999999954525e+00 -8.003799833877647050e-151
4.263749999999944862e+00 -1.857874838238899134e-150
4.477499999999949409e+00 -3.268039710688820386e-150
4.691249999999953957e+00 -4.726804255464281256e-150
4.904999999999944293e+00 -5.522511761979160351e-150
5.118749999999948841e+00 -4.403307923854776959e-150
5.332499999999953388e+00 4.350444602667609798e-151
5.546249999999943725e+00 1.108565138485436116e-149
5.759999999999948272e+00 2.919005202366889983e-149
5.973749999999952820e+00 5.452309272726591533e-149
6.187499999999943157e+00 8.281649865170132372e-149
6.401249999999947704e+00 1.030259521867069296e-148
6.614999999999952252e+00 9.478429507731993134e-149
6.828749999999942588e+00 2.758521662824944522e-149
7.042499999999947136e+00 -1.357907475433238891e-148
7.256249999999951683e+00 -4.282640935302637505e-148
7.469999999999942020e+00 -8.564077170000964962e-148
7.683749999999946567e+00 -1.365447390098386528e-147
7.897499999999951115e+00 -1.793735734042886617e-147
8.111249999999941451e+00 -1.827361309268342850e-147
8.324999999999945999e+00 -9.780870199779297368e-148
8.538749999999950546e+00 1.376680433264514819e-147
8.752499999999940883e+00 5.839073968448154075e-147
8.966249999999945430e+00 1.266431045539959559e-146
9.179999999999949978e+00 2.122574449716030553e-146
9.393749999999940314e+00 2.929612477175397306e-146
9.607499999999944862e+00 3.229012049252791781e-146
9.821249999999949409e+00 2.280001540542910747e-146
1.003499999999993975e+01 -9.006982927829441191e-147
1.024874999999994429e+01 -7.333559917540772683e-146
1.046249999999994884e+01 -1.761682206393241017e-145
1.067624999999993918e+01 -3.114856499792275063e-145
1.088999999999994373e+01 -4.504904750573559986e-145
1.110374999999994827e+01 -5.296998241426244522e-145
1.131749999999993861e+01 -4.424331246961076772e-145
1.153124999999994316e+01 -4.166043740150000329e-146
1.174499999999994770e+01 8.344019103245045865e-145
1.195874999999993804e+01 2.300838534901510076e-144
1.217249999999994259e+01 4.318306793498933927e-144
1.238624999999994714e+01 6.539305932351596251e-144
1.259999999999993747e+01 8.131085981310684662e-144
1.281374999999994202e+01 7.633997466207084712e-144
1.302749999999994657e+01 2.961851363603053082e-144
1.324124999999995111e+01 -8.299854446495143802e-144
1.345499999999994145e+01 -2.811295076758839066e-143
1.366874999999994600e+01 -5.656490493461475511e-143
1.388249999999995055e+01 -8.977917815310261703e-143
1.409624999999994088e+01 -1.174150951949782520e-142
1.430999999999994543e+01 -1.204850361636067120e-142
1.452374999999994998e+01 -7.085112195983868484e-143
1.473749999999994031e+01 6.555944283299920851e-143
1.495124999999994486e+01 3.193317424748553947e-142
1.516499999999994941e+01 6.996729398435137441e-142
1.537874999999993975e+01 1.167311211928988423e-141
1.559249999999994429e+01 1.600903526066704848e-141
1.580624999999994884e+01 1.765529386569475190e-141
1.601999999999993918e+01 1.299915126854402939e-141
1.623374999999994373e+01 -2.520801047330871933e-142
1.644749999999994827e+01 -3.333690523259565910e-141
1.666124999999993861e+01 -8.160496754472682279e-141
1.687499999999994316e+01 -1.438469538520508164e-140
1.708874999999994770e+01 -2.066463806733165760e-140
1.730249999999993804e+01 -2.423578888762659707e-140
1.751624999999994259e+01 -2.067762108436423016e-140
1.772999999999994714e+01 -4.182662242762518317e-141
1.794374999999993747e+01 3.127765971074320897e-140
1.815749999999994202e+01 8.949373115213259545e-140
1.837124999999994657e+01 1.680413291894165775e-139
1.858499999999993690e+01 2.530118797720722283e-139
1.879874999999994145e+01 3.134730183645993473e-139
1.901249999999994600e+01 2.978344767606656462e-139
1.922624999999993634e+01 1.356404329073433896e-139
1.943999999999994088e+01 -2.505487738186797121e-139
1.965374999999994543e+01 -9.182906415956983765e-139
1.986749999999993577e+01 -1.860197483477088020e-138
2.008124999999994031e+01 -2.942217892006920764e-138
2.029499999999994486e+01 -3.835586212167394448e-138
2.050874999999993520e+01 -3.965712046281914435e-138
2.072249999999993975e+01 -2.516860267861739505e-138
2.093624999999994429e+01 1.454496007057303982e-138
2.114999999999993463e+01 8.739853283153369645e-138
2.136374999999993918e+01 1.948977919777435131e-137
2.157749999999994373e+01 3.252158227299611393e-137
2.179124999999993406e+01 4.452177583462731593e-137
2.200499999999993861e+01 4.938158947726932052e-137
2.221874999999994316e+01 3.807708436455524964e-137
2.243249999999993349e+01 -3.299089843480472451e-139
2.264624999999993804e+01 -7.591602176428620661e-137
2.285999999999994259e+01 -1.928166178410913994e-136
2.307374999999993292e+01 -3.417803820737624819e-136
2.328749999999993747e+01 -4.912339365806105282e-136
2.350124999999994202e+01 -5.791893749099486557e-136
2.371499999999993236e+01 -5.101825005891768907e-136
2.392874999999993690e+01 -1.632787926382420537e-136
2.414249999999994145e+01 5.817507853074198558e-136
2.435624999999993179e+01 1.793878584754835001e-135
2.456999999999993634e+01 3.414002432388444095e-135
2.478374999999994088e+01 5.159088593914776484e-135
2.499749999999993122e+01 6.429103396455891174e-135
2.521124999999993577e+01 6.257677289356131330e-135
2.542499999999994031e+01 3.367356080957223577e-135
2.563874999999993065e+01 -3.596463934058204525e-135
2.585249999999993520e+01 -1.558380382454320060e-134
2.606624999999993975e+01 -3.237930174898430751e-134
2.627999999999994429e+01 -5.161628252824859898e-134
2.649374999999993463e+01 -6.776054933084347749e-134
2.670749999999993918e+01 -7.144855499964663958e-134
2.692124999999994373e+01 -4.977045036275016584e-134
2.713499999999993406e+01 1.175858882336521968e-134
2.734874999999993861e+01 1.248048979132905593e-133
2.756249999999994316e+01 2.909808677078704616e-133
2.777624999999993349e+01 4.921122780929939850e-133
2.798999999999993804e+01 6.796636036996266468e-133
2.820374999999994259e+01 7.667931874023924720e-133
2.841749999999993292e+01 6.285558504413125179e-133
2.863124999999993747e+01 1.174309157521525910e-133
2.884499999999994202e+01 -8.983735297545650057e-133
2.905874999999993236e+01 -2.468835512142401347e-132
2.927249999999993690e+01 -4.469833008570006631e-132
2.948624999999994145e+01 -6.497979143111704079e-132
2.969999999999993179e+01 -7.782670331356529013e-132
2.991374999999993634e+01 -7.165003291971768293e-132
3.012749999999994088e+01 -3.210305482211846582e-132
3.034124999999993122e+01 5.473224912400807922e-132
3.055499999999993577e+01 1.965492309577509307e-131
3.076874999999994031e+01 3.864059939006904745e-131
3.098249999999993065e+01 5.927090258540757718e-131
3.119624999999993520e+01 7.500930991150791222e-131
3.140999999999993975e+01 7.555016741611735802e-131
3.162374999999993008e+01 4.754476183298863056e-131
3.183749999999993463e+01 -2.287738129863050436e-131
3.205124999999993918e+01 -1.452295715043585777e-130
3.226499999999992951e+01 -3.172978817799791112e-130
3.247874999999993406e+01 -5.159896834926092201e-130
3.269249999999993861e+01 -6.883934383254479357e-130
3.290624999999992895e+01 -7.466425518335853008e-130
3.311999999999993349e+01 -5.717471465865607092e-130
3.333374999999993804e+01 -3.247523840508441237e-131
3.354749999999992838e+01 9.752656953055535548e-130
3.376124999999993292e+01 2.466322273402246097e-129
3.397499999999993747e+01 4.285990781550046434e-129
3.418874999999992781e+01 6.026676654576542687e-129
3.440249999999993236e+01 6.970382340741064917e-129
3.461624999999993690e+01 6.100012415389706985e-129
3.482999999999992724e+01 2.232058132986570289e-129
3.504374999999993179e+01 -5.679078628376196178e-129
3.525749999999993634e+01 -1.803787442973308142e-128
3.547124999999992667e+01 -3.393031504267499445e-128
3.568499999999993122e+01 -5.038214778370289968e-128
3.589874999999993577e+01 -6.177574778867206317e-128
3.611249999999992610e+01 -5.977059416298004033e-128
3.632624999999993065e+01 -3.416492371642647692e-128
3.653999999999993520e+01 2.485869857683029992e-128
3.675374999999992554e+01 1.228153678370070856e-127
3.696749999999993008e+01 2.554229853554871769e-127
3.718124999999993463e+01 4.022820397710843535e-127
3.739499999999992497e+01 5.213841482853866688e-127
3.760874999999992951e+01 5.471174591388386452e-127
3.782249999999993406e+01 3.952790944033987097e-127
3.803624999999993861e+01 -2.116840860145667380e-128
3.824999999999994316e+01 -7.628152095475526137e-127
3.846374999999991928e+01 -1.820933460512409571e-126
3.867749999999992383e+01 -3.065827610763275289e-126
3.889124999999992838e+01 -4.198159980317293533e-126
3.910499999999993292e+01 -4.723122069122212434e-126
3.931874999999993747e+01 -3.974589703908253285e-126
3.953249999999994202e+01 -1.219543121556038353e-126
3.974624999999991815e+01 4.132265293354843872e-126
3.995999999999992269e+01 1.220675530727407398e-125
4.017374999999992724e+01 2.226027576815855896e-125
4.038749999999993179e+01 3.227040602060947232e-125
4.060124999999993634e+01 3.866513230642388205e-125
4.081499999999994088e+01 3.639255048464334512e-125
4.102874999999991701e+01 1.956692845078743746e-125
4.124249999999992156e+01 -1.709725274632837800e-125
4.145624999999992610e+01 -7.596898235920119522e-125
4.166999999999993065e+01 -1.534470553296007531e-124
4.188374999999993520e+01 -2.366825112109136939e-124
4.209749999999993975e+01 -3.010558681235815149e-124
4.231124999999991587e+01 -3.098589166902907638e-124
4.252499999999992042e+01 -2.179471740033694531e-124
4.273874999999992497e+01 1.893492784164102180e-125
4.295249999999992951e+01 4.281582674482834324e-124
4.316624999999993406e+01 9.981178412411176332e-124
4.337999999999993861e+01 1.653157952384880538e-123
4.359374999999991473e+01 2.231955938955144792e-123
4.380749999999991928e+01 2.479361631352171096e-123
4.402124999999992383e+01 2.064407382081795325e-123
4.423499999999992838e+01 6.375373355004955115e-124
4.444874999999993292e+01 -2.063794256382096288e-123
4.466249999999993747e+01 -6.061871411934028590e-123
4.487624999999991360e+01 -1.095530096427329528e-122
4.508999999999991815e+01 -1.574586224818607284e-122
4.530374999999992269e+01 -1.874177777348761001e-122
4.551749999999992724e+01 -1.762533038098442745e-122
4.573124999999993179e+01 -9.780352307720614181e-123
4.594499999999993634e+01 7.044133143200909641e-123
4.615874999999991246e+01 3.371651217224621739e-122
4.637249999999991701e+01 6.844010424511370760e-122
4.658624999999992156e+01 1.054461003290830915e-121
4.679999999999992610e+01 1.340808896853492135e-121
4.701374999999993065e+01 1.388708945403112783e-121
4.722749999999993520e+01 1.012329679561972621e-121
4.744124999999993975e+01 3.420516236016194572e-123
4.765499999999991587e+01 -1.650326663351616204e-121
4.786874999999992042e+01 -3.987521068556354079e-121
4.808249999999992497e+01 -6.671904623508713909e-121
4.829624999999992951e+01 -9.070537839686980565e-121
4.850999999999993406e+01 -1.020186907283507256e-120
4.872374999999993861e+01 -8.813778183574106650e-121
4.893749999999991473e+01 -3.603587773848239026e-121
4.915124999999991928e+01 6.394226632013109827e-121
4.936499999999992383e+01 2.126393087061774451e-120
4.957874999999992838e+01 3.957780003138222943e-120
4.979249999999993292e+01 5.782384626420843753e-120
5.000624999999993747e+01 7.011612233612916460e-120
5.021999999999991360e+01 6.847132870769813776e-120
5.043374999999991815e+01 4.394340217359152774e-120
5.064749999999992269e+01 -1.117288024953936633e-120
5.086124999999992724e+01 -1.000602387352857027e-119
5.107499999999993179e+01 -2.173486812044971233e-119
5.128874999999993634e+01 -3.451226407422888070e-119
5.150249999999991246e+01 -4.502566878498383646e-119
5.171624999999991701e+01 -4.847957980400755059e-119
5.192999999999992156e+01 -3.912523404046014370e-119
5.214374999999992610e+01 -1.143556029642727398e-119
5.235749999999993065e+01 3.802506132009159416e-119
5.257124999999993520e+01 1.081734100751261054e-118
5.278499999999991132e+01 1.908228940286075094e-118
5.299874999999991587e+01 2.686478892897718212e-118
5.321249999999992042e+01 3.146810445258493009e-118
5.342624999999992497e+01 2.944731703227166495e-118
5.363999999999992951e+01 1.719287372889965183e-118
5.385374999999993406e+01 -8.067688302029919566e-119
5.406749999999991019e+01 -4.689746313358004897e-118
5.428124999999991473e+01 -9.609954881191737163e-118
5.449499999999991928e+01 -1.473546384457190653e-117
5.470874999999992383e+01 -1.865812581140023267e-117
5.492249999999992838e+01 -1.946577862158362464e-117
5.513624999999993292e+01 -1.501153179338015095e-117
5.534999999999990905e+01 -3.417257884760618536e-118
5.556374999999991360e+01 1.620135309222972802e-117
5.577749999999991815e+01 4.287669809310739316e-117
5.599124999999992269e+01 7.298058434287009099e-117
5.620499999999992724e+01 9.974073164813632199e-117
5.641874999999993179e+01 1.134210513722343128e-116
5.663249999999990791e+01 1.024985413400019453e-116
5.684624999999991246e+01 5.605610276067793923e-117
5.705999999999991701e+01 -3.263886564739071708e-117
5.727374999999992156e+01 -1.617868052250536234e-116
5.748749999999992610e+01 -3.168370436161675294e-116
5.770124999999993065e+01 -4.677717029346558260e-116
5.791499999999990678e+01 -5.695806508509626025e-116
5.812874999999991132e+01 -5.675677726953295511e-116
5.834249999999991587e+01 -4.085185101702967399e-116
5.855624999999992042e+01 -5.745155614446652181e-117
5.876999999999992497e+01 4.823072470294072554e-116
5.898374999999992951e+01 1.150391329537945815e-115
5.919749999999990564e+01 1.818910166004627551e-115
5.941124999999991019e+01 2.298347125284101012e-115
5.962499999999991473e+01 2.367093812540209538e-115
5.983874999999991928e+01 1.827890379804362726e-115
6.005249999999992383e+01 5.867811242579004241e-116
6.026624999999992838e+01 -1.260750976034499450e-115
6.047999999999990450e+01 -3.364197537492885529e-115
6.069374999999990905e+01 -5.110934815557733769e-115
6.090749999999991360e+01 -5.718345091279693174e-115
6.112124999999991815e+01 -4.454975791589921430e-115
6.133499999999992269e+01 -9.905440075827023718e-116
6.154874999999992724e+01 4.176797438970153184e-115
6.176249999999993179e+01 9.336163647049235465e-115
6.197624999999990791e+01 1.141521663763754912e-114
6.218999999999991246e+01 6.310942832862854643e-115
6.240374999999991701e+01 -1.006103920302094482e-114
6.261749999999992156e+01 -3.986097207834881116e-114
6.283124999999992610e+01 -8.065788681225001651e-114
6.304499999999993065e+01 -1.224707312437997296e-113
6.325874999999990678e+01 -1.454737814172918231e-113
6.347249999999991132e+01 -1.198238674811672018e-113
6.368624999999991587e+01 -9.409769507312435038e-115
6.389999999999992042e+01 2.187388329677378652e-113
6.411374999999992497e+01 5.784015667775954044e-113
6.432749999999992951e+01 1.042200407822193502e-112
6.454124999999990564e+01 1.517203858868752979e-112
6.475499999999991019e+01 1.825234121435203582e-112
6.496874999999991473e+01 1.698906054032791814e-112
6.518249999999991928e+01 8.073934926454848280e-113
6.539624999999992383e+01 -1.173791411964658462e-112
6.560999999999992838e+01 -4.439233430553646350e-112
6.582374999999990450e+01 -8.877869263653273007e-112
6.603749999999990905e+01 -1.386615606535709117e-111
6.625124999999991360e+01 -1.807825783819360671e-111
6.646499999999991815e+01 -1.939231295103808425e-111
6.667874999999992269e+01 -1.499920536283692235e-111
6.689249999999992724e+01 -1.832113591655942330e-112
6.710624999999990337e+01 2.258403677712688301e-111
6.731999999999990791e+01 5.883079447582467957e-111
6.753374999999991246e+01 1.039368445971040990e-110
6.774749999999991701e+01 1.496459835375305865e-110
6.796124999999992156e+01 1.811338353572077336e-110
6.817499999999992610e+01 1.769341110012819001e-110
6.838874999999990223e+01 1.110012047858916925e-110
6.860249999999990678e+01 -4.217895438569396487e-111
6.881624999999991132e+01 -2.988401591129024946e-110
6.902999999999991587e+01 -6.537078218967731899e-110
6.924374999999992042e+01 -1.065690811607091042e-109
6.945749999999992497e+01 -1.444582516838783293e-109
6.967124999999990109e+01 -1.643781784149061875e-109
6.988499999999990564e+01 -1.465750116810197263e-109
7.009874999999991019e+01 -6.877149401272349476e-110
7.031249999999991473e+01 8.858927897144341553e-110
7.052624999999991928e+01 3.341584017326795448e-109
7.073999999999992383e+01 6.550224931644895421e-109
7.095374999999989996e+01 1.005153998859272965e-108
7.116749999999990450e+01 1.295960530252037611e-108
7.138124999999990905e+01 1.393392561459973810e-108
7.159499999999991360e+01 1.127184151246245619e-108
7.180874999999991815e+01 3.179670163911649093e-109
7.202249999999992269e+01 -1.173502851775712492e-108
7.223624999999989882e+01 -3.374635471306091887e-108
7.244999999999990337e+01 -6.113136094126072191e-108
7.266374999999990791e+01 -8.928714400733881514e-108
7.287749999999991246e+01 -1.101125576246693164e-107
7.309124999999991701e+01 -1.120297193055053869e-107
7.330499999999992156e+01 -8.108567242331312100e-108
7.351874999999989768e+01 -3.550197358216061838e-109
7.373249999999990223e+01 1.297424709074920781e-107
7.394624999999990678e+01 3.174201069256888779e-107
7.415999999999991132e+01 5.406528243031845423e-107
7.437374999999991587e+01 7.567326528542657394e-107
7.458749999999992042e+01 8.954405951388595954e-107
7.480124999999992497e+01 8.612171223936980411e-107
7.501499999999990109e+01 5.444663451174584261e-107
7.522874999999990564e+01 -1.551512069519577744e-107
7.544249999999991019e+01 -1.292240304961600754e-106
7.565624999999991473e+01 -2.827954556953308125e-106
7.586999999999991928e+01 -4.577681479504918446e-106
7.608374999999992383e+01 -6.166649097960457034e-106
7.629749999999989996e+01 -7.012083825545352464e-106
7.651124999999990450e+01 -6.355217906971291171e-106
7.672499999999990905e+01 -3.367311282993633750e-106
7.693874999999991360e+01 2.651890374426174800e-106
7.715249999999991815e+01 1.197990910408973132e-105
7.736624999999992269e+01 2.410429987795570313e-105
7.757999999999989882e+01 3.734210155863012519e-105
7.779374999999990337e+01 4.854946204739030865e-105
7.800749999999990791e+01 5.306733907940614584e-105
7.822124999999991246e+01 4.507673578929427079e-105
7.843499999999991701e+01 1.853166693676445939e-105
7.864874999999992156e+01 -3.122018340598427860e-105
7.886249999999989768e+01 -1.051481965150829135e-104
7.907624999999990223e+01 -1.978086409972821732e-104
7.928999999999990678e+01 -2.946806042987384524e-104
7.950374999999991132e+01 -3.703897135118169197e-104
7.971749999999991587e+01 -3.889224238115472188e-104
7.993124999999992042e+01 -3.070771084212731335e-104
8.014499999999989654e+01 -8.227222625184123906e-105
8.035874999999990109e+01 3.147025097390448783e-104
8.057249999999990564e+01 8.824591323893758671e-104
8.078624999999991019e+01 1.569378595541302978e-103
8.099999999999991473e+01 2.255686043051257980e-103
8.121374999999991928e+01 2.743526085907444476e-103
8.142749999999989541e+01 2.763098005437650496e-103
8.164124999999989996e+01 2.003492747712434819e-103
8.185499999999990450e+01 1.753370264832876977e-104
8.206874999999990905e+01 -2.892224671598047365e-103
8.228249999999991360e+01 -7.125924507924229365e-103
8.249624999999991815e+01 -1.207175198734355902e-102
8.270999999999989427e+01 -1.677939271533672597e-102
8.292374999999989882e+01 -1.975431162470358045e-102
8.313749999999990337e+01 -1.903450389076674459e-102
8.335124999999990791e+01 -1.244970776265708923e-102
8.356499999999991246e+01 1.894387983533243661e-103
8.377874999999991701e+01 2.490151728743280734e-102
8.399249999999989313e+01 5.559656797852612944e-102
8.420624999999989768e+01 9.020587615665301229e-102
8.441999999999990223e+01 1.214472704517312283e-101
8.463374999999990678e+01 1.383639594825655827e-101
8.484749999999991132e+01 1.270929458769335141e-101
8.506124999999991587e+01 7.294002306493358565e-102
8.527499999999989200e+01 -3.600234901054713853e-102
8.548874999999989654e+01 -2.037457916870281642e-101
8.570249999999990109e+01 -4.203103309547980614e-101
8.591624999999990564e+01 -6.557415415199022216e-101
8.612999999999991019e+01 -8.559947915092304872e-101
8.634374999999991473e+01 -9.430095736760147665e-101
8.655749999999989086e+01 -8.215652950646157898e-101
8.677124999999989541e+01 -3.952160558024618352e-101
8.698499999999989996e+01 4.075196705671835345e-101
8.719874999999990450e+01 1.597684531259485584e-100
8.741249999999990905e+01 3.085293193028165879e-100
8.762624999999991360e+01 4.641805208318616151e-100
8.783999999999991815e+01 5.878022246238747391e-100
8.805374999999989427e+01 6.253075804201719932e-100
8.826749999999989882e+01 5.131128071936421068e-100
8.848124999999990337e+01 1.899313507392111276e-100
8.869499999999990791e+01 -3.848310991719093361e-100
8.890874999999991246e+01 -1.207147803882441613e-99
8.912249999999991701e+01 -2.202164042217236650e-99
8.933624999999989313e+01 -3.201584058261554455e-99
8.954999999999989768e+01 -3.933100277845743063e-99
8.976374999999990223e+01 -4.032109622390566678e-99
8.997749999999990678e+01 -3.086007570398620577e-99
9.019124999999991132e+01 -7.185752045481685610e-100
9.040499999999991587e+01 3.284555391573364220e-99
9.061874999999989200e+01 8.819110497922633346e-99
9.083249999999989654e+01 1.529832055126533483e-98
9.104624999999990109e+01 2.152279803230676634e-98
9.125999999999990564e+01 2.564015334347103803e-98
9.147374999999991019e+01 2.525925528026327802e-98
9.168749999999991473e+01 1.778041356592752830e-98
9.190124999999989086e+01 9.801296867910387253e-100
9.211499999999989541e+01 -2.615765946968490231e-98
9.232874999999989996e+01 -6.244421386527740994e-98
9.254249999999990450e+01 -1.034960606799469133e-97
9.275624999999990905e+01 -1.410269830715090833e-97
9.296999999999991360e+01 -1.627819709944909545e-97
9.318374999999988972e+01 -1.535109064952959902e-97
9.339749999999989427e+01 -9.733115110262526238e-98
9.361124999999989882e+01 1.834423344706452401e-98
9.382499999999990337e+01 1.974578072980450776e-97
9.403874999999990791e+01 4.291549959741813218e-97
9.425249999999991246e+01 6.820231060426037334e-97
9.446624999999988859e+01 9.005112140660118131e-97
9.467999999999989313e+01 1.005773763000689225e-96
9.489374999999989768e+01 9.032904428110659869e-97
9.510749999999990223e+01 4.991510502526409880e-97
9.532124999999990678e+01 -2.743503440455166297e-97
9.553499999999991132e+01 -1.425307111280701629e-96
9.574874999999988745e+01 -2.865445638953278541e-96
9.596249999999989200e+01 -4.377975463922926904e-96
9.617624999999989654e+01 -5.601339916734581483e-96
9.638999999999990109e+01 -6.042388952265850903e-96
9.660374999999990564e+01 -5.132359472476373375e-96
9.681749999999991019e+01 -2.335234045058571335e-96
9.703124999999988631e+01 2.690519102512935967e-96
9.724499999999989086e+01 9.889551469814820123e-96
9.745874999999989541e+01 1.859745317360203724e-95
9.767249999999989996e+01 2.736984474452163404e-95
9.788624999999990450e+01 3.392178997515713525e-95
9.809999999999990905e+01 3.525629641257576396e-95
9.831374999999988518e+01 2.805484104007625578e-95
9.852749999999988972e+01 9.374268067953189264e-96
9.874124999999989427e+01 -2.236212653934757409e-95
9.895499999999989882e+01 -6.617659897582756711e-95
9.916874999999990337e+01 -1.173563016540872674e-94
9.938249999999990791e+01 -1.665968344629932854e-94
9.959624999999988404e+01 -1.998782962141794297e-94
9.980999999999988859e+01 -1.995162267702019419e-94
1.000237499999998931e+02 -1.467656136584596921e-94
1.002374999999998977e+02 -2.615600836077931357e-95
1.004512499999999022e+02 1.686225634254326062e-94
1.006649999999999068e+02 4.279724637624503957e-94
1.008787499999998829e+02 7.200783594027829889e-94
1.010924999999998875e+02 9.869345312743498155e-94
1.013062499999998920e+02 1.145042560955130265e-93
1.015199999999998965e+02 1.093168326950316724e-93
1.017337499999999011e+02 7.290051625522697599e-94
1.019474999999999056e+02 -2.473456899840897525e-95
1.021612499999999102e+02 -1.186463114017570288e-93
1.023749999999998863e+02 -2.678701708820100759e-93
1.025887499999998909e+02 -4.295847551726972444e-93
1.028024999999998954e+02 -5.687734432021967105e-93
1.030162499999999000e+02 -6.371850555373613540e-93
1.032299999999999045e+02 -5.786569354554415466e-93
1.034437499999999091e+02 -3.393739830076128189e-93
1.036574999999998852e+02 1.169365926694830433e-93
1.038712499999998897e+02 7.901591300273065306e-93
1.040849999999998943e+02 1.624215522549495787e-92
1.042987499999998988e+02 2.491444026878098745e-92
1.045124999999999034e+02 3.187091809654871677e-92
1.047262499999999079e+02 3.440752723762921669e-92
1.049399999999998840e+02 2.950837199671867020e-92
1.051537499999998886e+02 1.445442928260073861e-92
1.053674999999998931e+02 -1.232037844410216522e-92
1.055812499999998977e+02 -5.021506046403084450e-92
1.057949999999999022e+02 -9.546669865897715131e-92
1.060087499999999068e+02 -1.404407884326314009e-91
1.062224999999998829e+02 -1.735393833743788746e-91
1.064362499999998875e+02 -1.800756156167873141e-91
1.066499999999998920e+02 -1.443977568129121236e-91
1.068637499999998965e+02 -5.337352670558355307e-92
1.070774999999999011e+02 9.894558029511512524e-92
1.072912499999999056e+02 3.060564146583915151e-91
1.075049999999998818e+02 5.441635823857157156e-91
1.077187499999998863e+02 7.692229728887700891e-91
1.079324999999998909e+02 9.175998243189543216e-91
1.081462499999998954e+02 9.120441470937456060e-91
1.083599999999999000e+02 6.742094186382023221e-91
1.085737499999999045e+02 1.439052461215322188e-91
1.087874999999998806e+02 -6.963406874168272271e-91
1.090012499999998852e+02 -1.794916174164570677e-90
1.092149999999998897e+02 -3.008709894170497263e-90
1.094287499999998943e+02 -4.092341687001067180e-90
1.096424999999998988e+02 -4.707698982818599763e-90
1.098562499999999034e+02 -4.461702691928810810e-90
1.100699999999998795e+02 -2.977104613890071843e-90
1.102837499999998840e+02 4.798427489135507345e-93
1.104974999999998886e+02 4.499270423521879707e-90
1.107112499999998931e+02 1.015130234250938266e-89
1.109249999999998977e+02 1.613775013233649471e-89
1.111387499999999022e+02 2.113757933157886685e-89
1.113524999999998784e+02 2.341182365149255622e-89
1.115662499999998829e+02 2.102809209867180542e-89
1.117799999999998875e+02 1.224554459600615680e-89
1.119937499999998920e+02 -3.956068048644700719e-90
1.122074999999998965e+02 -2.726394905214739131e-89
1.124212499999999011e+02 -5.544797003091297550e-89
1.126349999999998772e+02 -8.396426770243284867e-89
1.128487499999998818e+02 -1.059382895757611074e-88
1.130624999999998863e+02 -1.127184427182639241e-88
1.132762499999998909e+02 -9.514309506073583221e-89
1.134899999999998954e+02 -4.555590980369566062e-89
1.137037499999999000e+02 3.956467561281390781e-89
1.139174999999998761e+02 1.567142273041452018e-88
1.141312499999998806e+02 2.927983685621837782e-88
1.143449999999998852e+02 4.236900514592846625e-88
1.145587499999998897e+02 5.148087957146496020e-88
1.147724999999998943e+02 5.245573405560625695e-88
1.149862499999998988e+02 4.111470299485932232e-88
1.151999999999998749e+02 1.427610431022030882e-88
1.154137499999998795e+02 -2.898445622757203314e-88
1.156274999999998840e+02 -8.602352218266056121e-88
1.158412499999998886e+02 -1.495669920754874839e-87
1.160549999999998931e+02 -2.072745818081101702e-87
1.162687499999998977e+02 -2.423372980523915917e-87
1.164824999999999022e+02 -2.354523568785721831e-87
1.166962499999998784e+02 -1.683447570199568721e-87
1.169099999999998829e+02 -2.870502814462147988e-88
1.171237499999998875e+02 1.839962389395722015e-87
1.173374999999998920e+02 4.528252264959811961e-87
1.175512499999998965e+02 7.392825145367678939e-87
1.177649999999999011e+02 9.825233368396743908e-87
1.179787499999998772e+02 1.103644479440591791e-86
1.181924999999998818e+02 1.016357985357286786e-86
1.184062499999998863e+02 6.444278919428971283e-87
1.186199999999998909e+02 -5.522765923514604221e-88
1.188337499999998954e+02 -1.066754711181830434e-86
1.190474999999999000e+02 -2.291919510868736961e-86
1.192612499999998761e+02 -3.535763975283991303e-86
1.194749999999998806e+02 -4.509021423425851536e-86
1.196887499999998852e+02 -4.854400217487140060e-86
1.199024999999998897e+02 -4.201308137349327696e-86
1.201162499999998943e+02 -2.248787270848926120e-86
1.203299999999998988e+02 1.130505190016876047e-86
1.205437499999998749e+02 5.780781511502982828e-86
1.207574999999998795e+02 1.117195431604809200e-85
1.209712499999998840e+02 1.635706482706373627e-85
1.211849999999998886e+02 2.001048177201311063e-85
1.213987499999998931e+02 2.057405138151472613e-85
1.216124999999998977e+02 1.652457691078105821e-85
1.218262499999998738e+02 6.752792666107277430e-86
1.220399999999998784e+02 -8.987214334842166514e-86
1.222537499999998829e+02 -2.963440942957479805e-85
1.224674999999998875e+02 -5.249183268024063714e-85
1.226812499999998920e+02 -7.314177995101855279e-85
1.228949999999998965e+02 -8.573345641407595726e-85
1.231087499999998727e+02 -8.373880400495314589e-85
1.233224999999998772e+02 -6.120224488209933378e-85
1.235362499999998818e+02 -1.440321476314739859e-85
1.237499999999998863e+02 5.628387654541841794e-85
1.239637499999998909e+02 1.446889102785784964e-84
1.241774999999998954e+02 2.377786681383603773e-84
1.243912499999998715e+02 3.157519692327283660e-84
1.246049999999998761e+02 3.537788803660776926e-84
1.248187499999998806e+02 3.256821642643278795e-84
1.250324999999998852e+02 2.095253333349578837e-84