2.024999999999579359e-01 1.094671230697452832e-115
4.162499999999482725e-01 2.004006532850860690e-115
6.299999999999528200e-01 2.942945995540658202e-115
8.437499999999573674e-01 3.515475770808222456e-115
1.057499999999947704e+00 3.086646818522901631e-115
1.271249999999952252e+00 8.268691113398538212e-116
1.484999999999956799e+00 -4.111287345485835175e-115
1.698749999999947136e+00 -1.223044580423603116e-114
1.912499999999951683e+00 -2.311687540805665759e-114
2.126249999999956231e+00 -3.470757931086136388e-114
2.339999999999946567e+00 -4.256255512766168348e-114
2.553749999999951115e+00 -3.947061448686333254e-114
2.767499999999955662e+00 -1.589183307522985477e-114
2.981249999999945999e+00 3.813759706476207172e-114
3.194999999999950546e+00 1.290461534840561456e-113
3.408749999999955094e+00 2.534481069851994359e-113
3.622499999999945430e+00 3.900379042148630436e-113
3.836249999999949978e+00 4.914231657131971304e-113
4.049999999999954525e+00 4.793855415787651131e-113
4.263749999999944862e+00 2.489154102329374253e-113
4.477499999999949409e+00 -3.123217053811046622e-113
4.691249999999953957e+00 -1.282743702186146454e-112
4.904999999999944293e+00 -2.640831076653124411e-112
5.118749999999948841e+00 -4.179094648070268145e-112
5.332499999999953388e+00 -5.415832218745326753e-112
5.546249999999943725e+00 -5.540118586624465623e-112
5.759999999999948272e+00 -3.444516826145033049e-112
5.973749999999952820e+00 2.086332414624941431e-112
6.187499999999943157e+00 1.196553298137317622e-111
6.401249999999947704e+00 2.613882111904638164e-111
6.614999999999952252e+00 4.270731158095633532e-111
6.828749999999942588e+00 5.700894081467849587e-111
7.042499999999947136e+00 6.100323235861723511e-111
7.256249999999951683e+00 4.349271272958771425e-111
7.469999999999942020e+00 -8.146928172151208465e-112
7.683749999999946567e+00 -1.040695363261505634e-110
7.897499999999951115e+00 -2.455333087862450863e-110
8.111249999999941451e+00 -4.163006270105148508e-110
8.324999999999945999e+00 -5.734242116132406397e-110
8.538749999999950546e+00 -6.406300207357028702e-110
8.752499999999940883e+00 -5.093151280026826492e-110
8.966249999999945430e+00 -5.354965246188622637e-111
9.179999999999949978e+00 8.345365494493876695e-110
9.393749999999940314e+00 2.185198887670260229e-109
9.607499999999944862e+00 3.869977806363697273e-109
9.821249999999949409e+00 5.512640990937254015e-109
1.003499999999993975e+01 6.420844260411281385e-109
1.024874999999994429e+01 5.583935851710805925e-109
1.046249999999994884e+01 1.795481375789540063e-109
1.067624999999993918e+01 -6.039701720248865793e-109
1.088999999999994373e+01 -1.837569491303729194e-108
1.110374999999994827e+01 -3.428963317050722917e-108
1.131749999999993861e+01 -5.065240661637227158e-108
1.153124999999994316e+01 -6.145162309540996527e-108
1.174499999999994770e+01 -5.766258351744108173e-108
1.195874999999993804e+01 -2.818533628733059103e-108
1.217249999999994259e+01 3.761081580643504682e-108
1.238624999999994714e+01 1.453621178118477406e-107
1.259999999999993747e+01 2.892859718518971242e-107
1.281374999999994202e+01 4.447432815435174240e-107
1.302749999999994657e+01 5.618074856338797952e-107
1.324124999999995111e+01 5.631595261131481888e-107
1.345499999999994145e+01 3.507285505474446217e-107
1.366874999999994600e+01 -1.741875240650623294e-107
1.388249999999995055e+01 -1.073827537924047624e-106
1.409624999999994088e+01 -2.320000880974184132e-106
1.430999999999994543e+01 -3.729859793856295090e-106
1.452374999999994998e+01 -4.907337920729270602e-106
1.473749999999994031e+01 -5.217055390111868784e-106
1.495124999999994486e+01 -3.827058689030323667e-106
1.516499999999994941e+01 1.396452476884079181e-107
1.537874999999993975e+01 7.313358981743368984e-106
1.559249999999994429e+01 1.764161545665491637e-105
1.580624999999994884e+01 2.985528102527570325e-105
1.601999999999993918e+01 4.095722814527975169e-105
1.623374999999994373e+01 4.594185176167600092e-105
1.644749999999994827e+01 3.803400314143495854e-105
1.666124999999993861e+01 9.772771871211021577e-106
1.687499999999994316e+01 -4.478897506310996652e-105
1.708874999999994770e+01 -1.266959690372062560e-104
1.730249999999993804e+01 -2.278193537770224657e-104
1.751624999999994259e+01 -3.265741430153792350e-104
1.772999999999994714e+01 -3.851825832208328542e-104
1.794374999999993747e+01 -3.506909341944045066e-104
1.815749999999994202e+01 -1.622961484020857375e-104
1.837124999999994657e+01 2.327732264139429217e-104
1.858499999999993690e+01 8.539459913299641245e-104
1.879874999999994145e+01 1.654429209053754964e-103
1.901249999999994600e+01 2.486786581862221997e-103
1.922624999999993634e+01 3.078170638046153848e-103
1.943999999999994088e+01 3.031484949870411139e-103
1.965374999999994543e+01 1.871845565202321315e-103
1.986749999999993577e+01 -8.437936877146959519e-104
2.008124999999994031e+01 -5.345012616801493109e-103
2.029499999999994486e+01 -1.140442162237677042e-102
2.050874999999993520e+01 -1.807200647835247698e-102
2.072249999999993975e+01 -2.346466898615971540e-102
2.093624999999994429e+01 -2.472659953257696336e-102
2.114999999999993463e+01 -1.830201129533279088e-102
2.136374999999993918e+01 -6.569625977056397588e-104
2.157749999999994373e+01 3.046943645457999386e-102
2.179124999999993406e+01 7.433029567502614058e-102
2.200499999999993861e+01 1.252012892500443347e-101
2.221874999999994316e+01 1.706889785822852698e-101
2.243249999999993349e+01 1.911085050204416860e-101
2.264624999999993804e+01 1.609280344523745183e-101
2.285999999999994259e+01 5.328682083558375995e-102
2.307374999999993292e+01 -1.517383097566317735e-101
2.328749999999993747e+01 -4.552476965384827292e-101
2.350124999999994202e+01 -8.254824574539487322e-101
2.371499999999993236e+01 -1.184897101973545224e-100
2.392874999999993690e+01 -1.403556512673988214e-100
2.414249999999994145e+01 -1.305636377340431440e-100
2.435624999999993179e+01 -6.961663073945391413e-101
2.456999999999993634e+01 5.866615865576649380e-101
2.478374999999994088e+01 2.593203750276940722e-100
2.499749999999993122e+01 5.166184383833003539e-100
2.521124999999993577e+01 7.846446417651746009e-100
2.542499999999994031e+01 9.813713208164112897e-100
2.563874999999993065e+01 9.906801835218548338e-100
2.585249999999993520e+01 6.772058824502242702e-100
2.606624999999993975e+01 -8.202336192259123944e-101
2.627999999999994429e+01 -1.348029805606366447e-99
2.649374999999993463e+01 -3.056496741219317674e-99
2.670749999999993918e+01 -4.952043793282174369e-99
2.692124999999994373e+01 -6.540344496871694113e-99
2.713499999999993406e+01 -7.086183782390231057e-99
2.734874999999993861e+01 -5.689571504123763432e-99
2.756249999999994316e+01 -1.468169233504861148e-99
2.777624999999993349e+01 6.141502987601901872e-99
2.798999999999993804e+01 1.698218101658955728e-98
2.820374999999994259e+01 2.973662828304432802e-98
2.841749999999993292e+01 4.156930126885640264e-98
2.863124999999993747e+01 4.802020244811243703e-98
2.884499999999994202e+01 4.335486510985523746e-98
2.905874999999993236e+01 2.156243981048771392e-98
2.927249999999993690e+01 -2.188845482610510078e-98
2.948624999999994145e+01 -8.759889782668582269e-98
2.969999999999993179e+01 -1.694227999046537455e-97
2.991374999999993634e+01 -2.519484520066157209e-97
3.012749999999994088e+01 -3.092849691691275755e-97
3.034124999999993122e+01 -3.064028028064104714e-97
3.055499999999993577e+01 -2.042779951139959970e-97
3.076874999999994031e+01 3.030965499687197337e-98
3.098249999999993065e+01 4.104056336180017383e-97
3.119624999999993520e+01 9.115278977960500779e-97
3.140999999999993975e+01 1.454903593924557363e-96
3.162374999999993008e+01 1.896990552835214650e-96
3.183749999999993463e+01 2.032663500281250744e-96
3.205124999999993918e+01 1.619874936155241012e-96
3.226499999999992951e+01 4.318381092825560566e-97
3.247874999999993406e+01 -1.662016341625112425e-96
3.269249999999993861e+01 -4.593304208931091840e-96
3.290624999999992895e+01 -7.988454719618369708e-96
3.311999999999993349e+01 -1.108997430044714582e-95
3.333374999999993804e+01 -1.274724683989454378e-95
3.354749999999992838e+01 -1.152378845990323503e-95
3.376124999999993292e+01 -5.961191275890738547e-96
3.397499999999993747e+01 4.983408549112271882e-96
3.418874999999992781e+01 2.135277466328351406e-95
3.440249999999993236e+01 4.154644507568728119e-95
3.461624999999993690e+01 6.178089256187095929e-95
3.482999999999992724e+01 7.588370163997301443e-95
3.504374999999993179e+01 7.569288395985290731e-95
3.525749999999993634e+01 5.231435563700169939e-95
3.547124999999992667e+01 -1.616377713521033027e-96
3.568499999999993122e+01 -8.873979170524218721e-95
3.589874999999993577e+01 -2.032456132271079857e-94
3.611249999999992610e+01 -3.274220464018862810e-94
3.632624999999993065e+01 -4.296993010078780117e-94
3.653999999999993520e+01 -4.656945338894412457e-94
3.675374999999992554e+01 -3.837714674918601866e-94
3.696749999999993008e+01 -1.361789990153084823e-94
3.718124999999993463e+01 3.042089322706202672e-94
3.739499999999992497e+01 9.232060927922919599e-94
3.760874999999992951e+01 1.644517195919568364e-93
3.782249999999993406e+01 2.315006645690657073e-93
3.803624999999993861e+01 2.704086314572240172e-93
3.824999999999994316e+01 2.525859285994752790e-93
3.846374999999991928e+01 1.491002300030950802e-93
3.867749999999992383e+01 -6.093501737438459560e-94
3.889124999999992838e+01 -3.793641296733305860e-93
3.910499999999993292e+01 -7.771014583307193662e-93
3.931874999999993747e+01 -1.184345358863597308e-92
3.953249999999994202e+01 -1.487024340587992777e-92
3.974624999999991815e+01 -1.534187005513051207e-92
3.995999999999992269e+01 -1.160576747618528958e-92
4.017374999999992724e+01 -2.266386392492531312e-93
4.038749999999993179e+01 1.325604373266435281e-92
4.060124999999993634e+01 3.407924149219688219e-92
4.081499999999994088e+01 5.726302015693086219e-92
4.102874999999991701e+01 7.746661891543629513e-92
4.124249999999992156e+01 8.710487386276392339e-92
4.145624999999992610e+01 7.724482105076544139e-92
4.166999999999993065e+01 3.940779717604891062e-92
4.188374999999993520e+01 -3.172575340237417328e-92
4.209749999999993975e+01 -1.349737501691319792e-91
4.231124999999991587e+01 -2.592711325607914801e-91
4.252499999999992042e+01 -3.811982680621715590e-91
4.273874999999992497e+01 -4.646412974636947898e-91
4.295249999999992951e+01 -4.638831743256486485e-91
4.316624999999993406e+01 -3.311720810286789544e-91
4.337999999999993861e+01 -2.912288710454083232e-92
4.359374999999991473e+01 4.528683581654721492e-91
4.380749999999991928e+01 1.080609941740391189e-90
4.402124999999992383e+01 1.759700617737526974e-90
4.423499999999992838e+01 2.328499396277691706e-90
4.444874999999993292e+01 2.566080328675049132e-90
4.466249999999993747e+01 2.221181470029903421e-90
4.487624999999991360e+01 1.065556422458215848e-90
4.508999999999991815e+01 -1.029828268870088622e-90
4.530374999999992269e+01 -4.004519820774998379e-90
4.551749999999992724e+01 -7.521654213036012862e-90
4.573124999999993179e+01 -1.091026007376034902e-89
4.594499999999993634e+01 -1.316847726609619331e-89
4.615874999999991246e+01 -1.305951586209715561e-89
4.637249999999991701e+01 -9.323622819605607070e-90
4.658624999999992156e+01 -1.009845188090911077e-90
4.679999999999992610e+01 1.209939542284024675e-89
4.701374999999993065e+01 2.903744092775326702e-89
4.722749999999993520e+01 4.728483158044755624e-89
4.744124999999993975e+01 6.262605230108161968e-89
4.765499999999991587e+01 6.938811844335091551e-89
4.786874999999992042e+01 6.119572249268774838e-89
4.808249999999992497e+01 3.230836683083473256e-89
4.829624999999992951e+01 -2.051739564241639931e-89
4.850999999999993406e+01 -9.586683542573193895e-89
4.872374999999993861e+01 -1.856280620840768164e-88
4.893749999999991473e+01 -2.736773105037972545e-88
4.915124999999991928e+01 -3.360030607934070288e-88
4.936499999999992383e+01 -3.429634442834412648e-88
4.957874999999992838e+01 -2.641585616867890254e-88
4.979249999999993292e+01 -7.595507470666837284e-89
5.000624999999993747e+01 2.289719560745525113e-88
5.021999999999991360e+01 6.315508547846511024e-88
5.043374999999991815e+01 1.078010536697473219e-87
5.064749999999992269e+01 1.476370117380014895e-87
5.086124999999992724e+01 1.700954714687457715e-87
5.107499999999993179e+01 1.607679150951285893e-87
5.128874999999993634e+01 1.061417992561846323e-87
5.150249999999991246e+01 -2.564680327643800330e-89
5.171624999999991701e+01 -1.649091239636826496e-87
5.192999999999992156e+01 -3.668821312125049348e-87
5.214374999999992610e+01 -5.778634266782468239e-87
5.235749999999993065e+01 -7.502340334390996552e-87
5.257124999999993520e+01 -8.229705517537864012e-87
5.278499999999991132e+01 -7.301778409253309034e-87
5.299874999999991587e+01 -4.147496536843371972e-87
5.321249999999992042e+01 1.538032706243209615e-87
5.342624999999992497e+01 9.597390200003171438e-87
5.363999999999992951e+01 1.923532659928165954e-86
5.385374999999993406e+01 2.891420248793802104e-86
5.406749999999991019e+01 3.637580943726759909e-86
5.428124999999991473e+01 3.883938607155994994e-86
5.449499999999991928e+01 3.340635113647294818e-86
5.470874999999992383e+01 1.766830099012569964e-86
5.492249999999992838e+01 -9.531890009886152384e-87
5.513624999999993292e+01 -4.728997366715450272e-86
5.534999999999990905e+01 -9.193749296886725614e-86
5.556374999999991360e+01 -1.366410669087925927e-85
5.577749999999991815e+01 -1.715109276118143194e-85
5.599124999999992269e+01 -1.844003625972076451e-85
5.620499999999992724e+01 -1.625071482420795007e-85
5.641874999999993179e+01 -9.477167787775760950e-86
5.663249999999990791e+01 2.508817105381478223e-86
5.684624999999991246e+01 1.952422500352131225e-85
5.705999999999991701e+01 4.026261148722558160e-85
5.727374999999992156e+01 6.206918397125345462e-85
5.748749999999992610e+01 8.087825700224269778e-85
5.770124999999993065e+01 9.138904842790900607e-85
5.791499999999990678e+01 8.754633032614451859e-85
5.812874999999991132e+01 6.337088081830542106e-85
5.834249999999991587e+01 1.414924616087236304e-85
5.855624999999992042e+01 -6.205906227320232183e-85
5.876999999999992497e+01 -1.627085895978889772e-84
5.898374999999992951e+01 -2.790510472793542906e-84
5.919749999999990564e+01 -3.947266090731929086e-84
5.941124999999991019e+01 -4.850991876836520144e-84
5.962499999999991473e+01 -5.178910169015023073e-84
5.983874999999991928e+01 -4.557532525197313267e-84
6.005249999999992383e+01 -2.613987699869201854e-84
6.026624999999992838e+01 9.425142242828059174e-85
6.047999999999990450e+01 6.208770369464643398e-84
6.069374999999990905e+01 1.295226985109738259e-83
6.090749999999991360e+01 2.047027414113335607e-83
6.112124999999991815e+01 2.747462152828370294e-83
6.133499999999992269e+01 3.204792922871166610e-83
6.154874999999992724e+01 3.172839750833219905e-83
6.176249999999993179e+01 2.378379288255773944e-83
6.197624999999990791e+01 5.723821134261268073e-84
6.218999999999991246e+01 -2.393263473103874745e-83
6.240374999999991701e+01 -6.467773117964243648e-83
6.261749999999992156e+01 -1.129495687128499078e-82
6.283124999999992610e+01 -1.612124745180316868e-82
6.304499999999993065e+01 -1.975175394675157668e-82
6.325874999999990678e+01 -2.059539813578395161e-82
6.347249999999991132e+01 -1.684099851016745739e-82
6.368624999999991587e+01 -6.795842685814648719e-83
6.389999999999992042e+01 1.060700873033370786e-82
6.411374999999992497e+01 3.516860411328652582e-82
6.432749999999992951e+01 6.474434972558039219e-82
6.454124999999990564e+01 9.468312512894083668e-82
6.475499999999991019e+01 1.176037200328681997e-81
6.496874999999991473e+01 1.237619645572774083e-81
6.518249999999991928e+01 1.022478173671009216e-81
6.539624999999992383e+01 4.316450793343686866e-82
6.560999999999992838e+01 -5.923581979826090626e-82
6.582374999999990450e+01 -2.027559185199621450e-81
6.603749999999990905e+01 -3.734339112658555748e-81
6.625124999999991360e+01 -5.426963553063753754e-81
6.646499999999991815e+01 -6.667685765828595000e-81
6.667874999999992269e+01 -6.897296415467803712e-81
6.689249999999992724e+01 -5.513873496120777861e-81
6.710624999999990337e+01 -2.005091035275239135e-81
6.731999999999990791e+01 3.871807014074340523e-81
6.753374999999991246e+01 1.188395679010452251e-80
6.774749999999991701e+01 2.113065357642233445e-80
6.796124999999992156e+01 2.992231883404031378e-80
6.817499999999992610e+01 3.579952874480129465e-80
6.838874999999990223e+01 3.576040979911318145e-80
6.860249999999990678e+01 2.674593247568719682e-80
6.881624999999991132e+01 6.391186915984472504e-81
6.902999999999991587e+01 -2.601417006984651126e-80
6.924374999999992042e+01 -6.849644568599412148e-80
6.945749999999992497e+01 -1.155289571310260741e-79
6.967124999999990109e+01 -1.576283166762254275e-79
6.988499999999990564e+01 -1.817549210611754170e-79
7.009874999999991019e+01 -1.728204368783828378e-79
7.031249999999991473e+01 -1.164726369125127833e-79
7.052624999999991928e+01 -3.085562096284545452e-81
7.073999999999992383e+01 1.674612738919614989e-79
7.095374999999989996e+01 3.810386330362027956e-79
7.116749999999990450e+01 6.057797234360894971e-79
7.138124999999990905e+01 7.913503842720912379e-79
7.159499999999991360e+01 8.725125485795126640e-79
7.180874999999991815e+01 7.781750137546839482e-79
7.202249999999992269e+01 4.463149960460971301e-79
7.223624999999989882e+01 -1.561456765142895768e-79
7.244999999999990337e+01 -1.011118801196988399e-78
7.266374999999990791e+01 -2.029235845088152679e-78
7.287749999999991246e+01 -3.037895107617145366e-78
7.309124999999991701e+01 -3.784357303378347700e-78
7.330499999999992156e+01 -3.960270963112213960e-78
7.351874999999989768e+01 -3.251658186374806040e-78
7.373249999999990223e+01 -1.413919819390459118e-78
7.394624999999990678e+01 1.635041985199156705e-78
7.415999999999991132e+01 5.718242756206293149e-78
7.437374999999991587e+01 1.032194474322959410e-77
7.458749999999992042e+01 1.456497261761897461e-77
7.480124999999992497e+01 1.724444388069592982e-77
7.501499999999990109e+01 1.698198818347235018e-77
7.522874999999990564e+01 1.248072130099116169e-77
7.544249999999991019e+01 2.880538947405607495e-78
7.565624999999991473e+01 -1.183071496605085792e-77
7.586999999999991928e+01 -3.042584734679840954e-77
7.608374999999992383e+01 -5.017191650230474293e-77
7.629749999999989996e+01 -6.681109033518350488e-77
7.651124999999990450e+01 -7.490557482220909052e-77
7.672499999999990905e+01 -6.862673776114381163e-77
7.693874999999991360e+01 -4.299563538238476971e-77
7.715249999999991815e+01 4.525258231262243161e-78
7.736624999999992269e+01 7.232018616861583608e-77
7.757999999999989882e+01 1.531517772639461285e-76
7.779374999999990337e+01 2.334024576398742382e-76
7.800749999999990791e+01 2.935258128291368354e-76
7.822124999999991246e+01 3.101349272435675220e-76
7.843499999999991701e+01 2.599450080929554109e-76
7.864874999999992156e+01 1.254325414333122940e-76
7.886249999999989768e+01 -9.840425709975624661e-77
7.907624999999990223e+01 -3.973359860854211988e-76
7.928999999999990678e+01 -7.328876898725843931e-76
7.950374999999991132e+01 -1.040970854583032525e-75
7.971749999999991587e+01 -1.236080732321273050e-75
7.993124999999992042e+01 -1.222466842210264602e-75
8.014499999999989654e+01 -9.126115016579331147e-76
8.035874999999990109e+01 -2.517339370442258947e-76
8.057249999999990564e+01 7.549669182222668660e-76
8.078624999999991019e+01 2.017690988521703918e-75
8.099999999999991473e+01 3.347067551950648256e-75
8.121374999999991928e+01 4.456560816958624207e-75
8.142749999999989541e+01 4.989104194535485251e-75
8.164124999999989996e+01 4.571929723325034256e-75
8.185499999999990450e+01 2.898492155741201648e-75
8.206874999999990905e+01 -1.705650515446622448e-76
8.228249999999991360e+01 -4.503419227609741993e-75
8.249624999999991815e+01 -9.613562989436065287e-75
8.270999999999989427e+01 -1.462531643108012892e-74
8.292374999999989882e+01 -1.831720130042586495e-74
8.313749999999990337e+01 -1.926556937317544514e-74
8.335124999999990791e+01 -1.609637255709053385e-74
8.356499999999991246e+01 -7.830508124725698995e-75
8.377874999999991701e+01 5.720179922124923436e-75
8.399249999999989313e+01 2.357909435338725555e-74
8.420624999999989768e+01 4.335114211766883303e-74
8.441999999999990223e+01 6.119901359177081783e-74
8.463374999999990678e+01 7.215035407951311629e-74
8.484749999999991132e+01 7.079983421703540132e-74
8.506124999999991587e+01 5.240279604140003949e-74
8.527499999999989200e+01 1.426283565040503532e-74
8.548874999999989654e+01 -4.279425319599711465e-74
8.570249999999990109e+01 -1.131735247584462566e-73
8.591624999999990564e+01 -1.858789438782017464e-73
8.612999999999991019e+01 -2.448974861167507620e-73
8.634374999999991473e+01 -2.709231838878420263e-73
8.655749999999989086e+01 -2.445592480812200316e-73
8.677124999999989541e+01 -1.508417452409139538e-73
8.698499999999989996e+01 1.544946304284213465e-74
8.719874999999990450e+01 2.446315176228711088e-73
8.741249999999990905e+01 5.083960552307971694e-73
8.762624999999991360e+01 7.589888341116993662e-73
8.783999999999991815e+01 9.326610770292032695e-73
8.805374999999989427e+01 9.582998978338844702e-73
8.826749999999989882e+01 7.712775326608020578e-73
8.848124999999990337e+01 3.313283018657490402e-73
8.869499999999990791e+01 -3.581848017417834546e-73
8.890874999999991246e+01 -1.233655985381228510e-72
8.912249999999991701e+01 -2.162322503017173769e-72
8.933624999999989313e+01 -2.946299147986832080e-72
8.954999999999989768e+01 -3.343828225610911048e-72
8.976374999999990223e+01 -3.109597940499964497e-72
8.997749999999990678e+01 -2.052130738792348494e-72
9.019124999999991132e+01 -1.012948848677572332e-73
9.040499999999991587e+01 2.626304582773256876e-72
9.061874999999989200e+01 5.780801882725420470e-72
9.083249999999989654e+01 8.770441541569902056e-72
9.104624999999990109e+01 1.080845309920443029e-71
9.125999999999990564e+01 1.102672135438853873e-71
9.147374999999991019e+01 8.655828694839746084e-72
9.168749999999991473e+01 3.254541235772303579e-72
9.190124999999989086e+01 -5.047444055714850711e-72
9.211499999999989541e+01 -1.534810096651949969e-71
9.232874999999989996e+01 -2.588034143605366910e-71
9.254249999999990450e+01 -3.409668681501430832e-71
9.275624999999990905e+01 -3.698505224537513391e-71
9.296999999999991360e+01 -3.163455639540174905e-71
9.318374999999988972e+01 -1.601583967889382276e-71
9.339749999999989427e+01 1.012864000973776062e-71
9.361124999999989882e+01 4.446162477896871900e-71
9.382499999999990337e+01 8.153271025109174758e-71
9.403874999999990791e+01 1.128287650928553501e-70
9.425249999999991246e+01 1.276296079355771978e-70
9.446624999999988859e+01 1.148063238462079943e-70
9.467999999999989313e+01 6.552223820973243651e-71
9.489374999999989768e+01 -2.344941521702980891e-71
9.510749999999990223e+01 -1.463607626113105452e-70
9.532124999999990678e+01 -2.859144678413718805e-70
9.553499999999991132e+01 -4.124928084981096622e-70
9.574874999999988745e+01 -4.862067001019458278e-70
9.596249999999989200e+01 -4.625287021438358296e-70
9.617624999999989654e+01 -3.017162846168810034e-70
9.638999999999990109e+01 1.863105144377824323e-71
9.660374999999990564e+01 4.896282231843741291e-70
9.681749999999991019e+01 1.058673776715039817e-69
9.703124999999988631e+01 1.622385258464600968e-69
9.724499999999989086e+01 2.029184283314310474e-69
9.745874999999989541e+01 2.095375481768577596e-69
9.767249999999989996e+01 1.636966360267519075e-69
9.788624999999990450e+01 5.165852747857822731e-70
9.809999999999990905e+01 -1.299206991074279380e-69
9.831374999999988518e+01 -3.681687411583572689e-69
9.852749999999988972e+01 -6.294931328025259283e-69
9.874124999999989427e+01 -8.581369153926082178e-69
9.895499999999989882e+01 -9.795886446532348990e-69
9.916874999999990337e+01 -9.102805337327459613e-69
9.938249999999990791e+01 -5.741301732965785965e-69
9.959624999999988404e+01 7.493809163199628473e-70
9.980999999999988859e+01 1.027219872519019166e-68
1.000237499999998931e+02 2.192993796930311245e-68
1.002374999999998977e+02 3.386458521532639781e-68
1.004512499999999022e+02 4.325576974243123428e-68
1.006649999999999068e+02 4.655295039450007817e-68
1.008787499999998829e+02 3.999416214397451881e-68
1.010924999999998875e+02 2.041956447768126957e-68
1.013062499999998920e+02 -1.367895122187938914e-68
1.015199999999998965e+02 -6.101445672685975731e-68
1.017337499999999011e+02 -1.164982566110350403e-67
1.019474999999999056e+02 -1.706732780031829323e-67
1.021612499999999102e+02 -2.099257642720402177e-67
1.023749999999998863e+02 -2.177837859552974426e-67
1.025887499999998909e+02 -1.774950492327784201e-67
1.028024999999998954e+02 -7.586245357026834341e-68
1.030162499999999000e+02 9.199001121216826909e-68
1.032299999999999045e+02 3.176156941802029949e-67
1.034437499999999091e+02 5.750729682647750933e-67
1.036574999999998852e+02 8.189352589891980300e-67
1.038712499999998897e+02 9.859387056614604997e-67
1.040849999999998943e+02 1.001532253015997037e-66
1.042987499999998988e+02 7.920256734634041613e-67
1.045124999999999034e+02 3.020464501272366611e-67
1.047262499999999079e+02 -4.843399412818414364e-67
1.049399999999998840e+02 -1.522071620728236130e-66
1.051537499999998886e+02 -2.687857114421830290e-66
1.053674999999998931e+02 -3.773155191646759609e-66
1.055812499999998977e+02 -4.493526499928095921e-66
1.057949999999999022e+02 -4.519496710122372874e-66
1.060087499999999068e+02 -3.531429898713421545e-66
1.062224999999998829e+02 -1.296541943823844563e-66
1.064362499999998875e+02 2.239671486877794006e-66
1.066499999999998920e+02 6.861974632574481763e-66
1.068637499999998965e+02 1.201457716052939406e-65
1.070774999999999011e+02 1.677599617100691216e-65
1.072912499999999056e+02 1.990521094049289354e-65
1.075049999999998818e+02 1.997978980562347423e-65
1.077187499999998863e+02 1.563494737281885995e-65
1.079324999999998909e+02 5.893711253887717888e-66
1.081462499999998954e+02 -9.446262238252704783e-66
1.083599999999999000e+02 -2.943116242264905229e-65
1.085737499999999045e+02 -5.166210311011164811e-65
1.087874999999998806e+02 -7.220282874713621452e-65
1.090012499999998852e+02 -8.578870943170914003e-65
1.092149999999998897e+02 -8.641931718141580532e-65
1.094287499999998943e+02 -6.836676575768571679e-65
1.096424999999998988e+02 -2.755359560634114195e-65
1.098562499999999034e+02 3.684720385905999341e-65
1.100699999999998795e+02 1.208485671694967165e-64
1.102837499999998840e+02 2.144813043201668746e-64
1.104974999999998886e+02 3.014444116998200355e-64
1.107112499999998931e+02 3.599936414829945674e-64
1.109249999999998977e+02 3.653919179652922106e-64
1.111387499999999022e+02 2.940379372571142720e-64
1.113524999999998784e+02 1.290707497840041514e-64
1.115662499999998829e+02 -1.331577588380819870e-64
1.117799999999998875e+02 -4.767909115136408239e-64
1.119937499999998920e+02 -8.617969622884923398e-64
1.122074999999998965e+02 -1.222601640060735974e-63
1.124212499999999011e+02 -1.471677306910322340e-63
1.126349999999998772e+02 -1.509344979187858136e-63
1.128487499999998818e+02 -1.240213759172090076e-63
1.130624999999998863e+02 -5.954209242310441030e-64
1.132762499999998909e+02 4.417553480210684849e-64
1.134899999999998954e+02 1.811048650758759247e-63
1.137037499999999000e+02 3.356767522553215640e-63
1.139174999999998761e+02 4.822311807808627549e-63
1.141312499999998806e+02 5.864035636062470969e-63
1.143449999999998852e+02 6.089268552865335033e-63
1.145587499999998897e+02 5.120061124839881751e-63
1.147724999999998943e+02 2.679348425958720723e-63
1.149862499999998988e+02 -1.309876511660054685e-63
1.151999999999998749e+02 -6.628296561307740790e-63
1.154137499999998795e+02 -1.268851562434505993e-62
1.156274999999998840e+02 -1.851274489157120497e-62
1.158412499999998886e+02 -2.278418921722860013e-62
1.160549999999998931e+02 -2.399030234387446124e-62
1.162687499999998977e+02 -2.066374830091684735e-62
1.164824999999999022e+02 -1.170852104667409819e-62
1.166962499999998784e+02 3.224217171715202820e-63
1.169099999999998829e+02 2.337031237372976647e-62
1.171237499999998875e+02 4.657764032168440805e-62
1.173374999999998920e+02 6.921500626225043792e-62
1.175512499999998965e+02 8.635526407502891907e-62
1.177649999999999011e+02 9.230025258827054428e-62
1.179787499999998772e+02 8.146945791237064740e-62
1.181924999999998818e+02 4.960651647775982555e-62
1.184062499999998863e+02 -4.826408885290954599e-63
1.186199999999998909e+02 -7.928526356646215181e-62
1.188337499999998954e+02 -1.661075681912885766e-61
1.190474999999999000e+02 -2.521428454589590072e-61
1.192612499999998761e+02 -3.193802053519261128e-61
1.194749999999998806e+02 -3.468207519148882327e-61
1.196887499999998852e+02 -3.136772549741224140e-61
1.199024999999998897e+02 -2.037390540637932081e-61
1.201162499999998943e+02 -1.043768509434453924e-62
1.203299999999998988e+02 2.581704814141474516e-61
1.205437499999998749e+02 5.755641164691712372e-61
1.207574999999998795e+02 8.952778871646030496e-61
1.209712499999998840e+02 1.152969029460770299e-60
1.211849999999998886e+02 1.272922617984868511e-60
1.213987499999998931e+02 1.179305014717596300e-60
1.216124999999998977e+02 8.116123181302978695e-61
1.218262499999998738e+02 1.426945349157059241e-61
1.220399999999998784e+02 -8.033879869312418700e-61
1.222537499999998829e+02 -1.937391181742247553e-60
1.224674999999998875e+02 -3.099076184712017127e-60
1.226812499999998920e+02 -4.063731362644464578e-60
1.228949999999998965e+02 -4.564195692741615561e-60
1.231087499999998727e+02 -4.329536851523216465e-60
1.233224999999998772e+02 -3.138557444805463351e-60
1.235362499999998818e+02 -8.826201367020019749e-61
1.237499999999998863e+02 2.371602373639353096e-60
1.239637499999998909e+02 6.332212164413376293e-60
1.241774999999998954e+02 1.045973874190185277e-59
1.243912499999998715e+02 1.398677416572730816e-59
1.246049999999998761e+02 1.599064335458054290e-59
1.248187499999998806e+02 1.552335925036616098e-59
1.250324999999998852e+02 1.179303135262766446e-59
1.252462499999998897e+02 4.378424816284450250e-60
1.254599999999998943e+02 -6.554807025289850665e-60
1.256737499999998704e+02 -2.007914792734499089e-59
1.258874999999998749e+02 -3.442124265757300379e-59
1.261012499999998795e+02 -4.701781996436853361e-59
1.263149999999998840e+02 -5.474941913692861547e-59