2.024999999999579359e-01 -1.834339433821835092e-121
4.162499999999482725e-01 -1.595153484164868766e-121
6.299999999999528200e-01 -2.836388542011141787e-122
8.437499999999573674e-01 2.684577323968314317e-121
1.057499999999947704e+00 7.741474518855334872e-121
1.271249999999952252e+00 1.478024997963146672e-120
1.484999999999956799e+00 2.259923023393083804e-120
1.698749999999947136e+00 2.825967236397863706e-120
1.912499999999951683e+00 2.657592494541922062e-120
2.126249999999956231e+00 1.013294717121908050e-120
2.339999999999946567e+00 -2.959619101567875049e-120
2.553749999999951115e+00 -9.936649417266825430e-120
2.767499999999955662e+00 -1.989708291280564901e-119
2.981249999999945999e+00 -3.137254665923051044e-119
3.194999999999950546e+00 -4.057056911611452916e-119
3.408749999999955094e+00 -4.065542739746126614e-119
3.622499999999945430e+00 -2.169556551845412592e-119
3.836249999999949978e+00 2.798637997433712026e-119
4.049999999999954525e+00 1.182056700009313503e-118
4.263749999999944862e+00 2.503513004095941792e-118
4.477499999999949409e+00 4.078147276355107415e-118
4.691249999999953957e+00 5.447059730843434493e-118
4.904999999999944293e+00 5.762908961883389693e-118
5.118749999999948841e+00 3.773434831114818289e-118
5.332499999999953388e+00 -2.026486389908802079e-118
5.546249999999943725e+00 -1.297034523104169637e-117
5.759999999999948272e+00 -2.943729132507877872e-117
5.973749999999952820e+00 -4.970099104493243739e-117
6.187499999999943157e+00 -6.855622728256994555e-117
6.401249999999947704e+00 -7.611692067094707783e-117
6.614999999999952252e+00 -5.749719256342261975e-117
6.828749999999942588e+00 5.597289812726003964e-118
7.042499999999947136e+00 1.301705325674431797e-116
7.256249999999951683e+00 3.231276456889115535e-116
7.469999999999942020e+00 5.681844052489005677e-116
7.683749999999946567e+00 8.100412192042595442e-116
7.897499999999951115e+00 9.400795366139856174e-116
8.111249999999941451e+00 7.913141653191097896e-116
8.324999999999945999e+00 1.537894733311394245e-116
8.538749999999950546e+00 -1.176483793207334536e-115
8.752499999999940883e+00 -3.303894316762007885e-115
8.966249999999945430e+00 -6.092347046164828513e-115
9.179999999999949978e+00 -8.992444723082326536e-115
9.393749999999940314e+00 -1.088022117351198906e-114
9.607499999999944862e+00 -9.987005055076982923e-115
9.821249999999949409e+00 -4.036007231511811970e-115
1.003499999999993975e+01 9.278208030093756851e-115
1.024874999999994429e+01 3.134908734524887638e-114
1.046249999999994884e+01 6.122221085858898820e-114
1.067624999999993918e+01 9.380606654654320799e-114
1.088999999999994373e+01 1.181492058243754946e-113
1.110374999999994827e+01 1.165598634073313013e-113
1.131749999999993861e+01 6.570183818064949847e-114
1.153124999999994316e+01 -5.898757315471672070e-114
1.174499999999994770e+01 -2.743639143631742679e-113
1.195874999999993804e+01 -5.757115109967839590e-113
1.217249999999994259e+01 -9.191783803565225080e-113
1.238624999999994714e+01 -1.204342491958051550e-112
1.259999999999993747e+01 -1.264088541269294878e-112
1.281374999999994202e+01 -8.723582802003245313e-113
1.302749999999994657e+01 2.175797068903660106e-113
1.324124999999995111e+01 2.192886970994858859e-112
1.345499999999994145e+01 5.054312021824613460e-112
1.366874999999994600e+01 8.452708140345406658e-112
1.388249999999995055e+01 1.152206066394391831e-111
1.409624999999994088e+01 1.277207617704528437e-111
1.430999999999994543e+01 1.013384716010514918e-111
1.452374999999994998e+01 1.271528926229217670e-112
1.473749999999994031e+01 -1.573564644087713909e-111
1.495124999999994486e+01 -4.129353606522672145e-111
1.516499999999994941e+01 -7.285110311316356287e-111
1.537874999999993975e+01 -1.033885196797417084e-110
1.559249999999994429e+01 -1.203618053082392101e-110
1.580624999999994884e+01 -1.058910414914735566e-110
1.601999999999993918e+01 -3.915027738801743966e-111
1.623374999999994373e+01 9.814080349074736983e-111
1.644749999999994827e+01 3.126751861659973680e-110
1.666124999999993861e+01 5.875102169176949503e-110
1.687499999999994316e+01 8.691438904992276153e-110
1.708874999999994770e+01 1.057903137341179446e-109
1.730249999999993804e+01 1.007946514370358962e-109
1.751624999999994259e+01 5.445984310763792474e-110
1.772999999999994714e+01 -4.936487052152698114e-110
1.794374999999993747e+01 -2.184582784845568594e-109
1.815749999999994202e+01 -4.426936304681708565e-109
1.837124999999994657e+01 -6.836278832134612626e-109
1.858499999999993690e+01 -8.663979917596861116e-109
1.879874999999994145e+01 -8.787337148673579299e-109
1.901249999999994600e+01 -5.829863936277623081e-109
1.922624999999993634e+01 1.531946356567536844e-109
1.943999999999994088e+01 1.404477756543527523e-108
1.965374999999994543e+01 3.116378869029796680e-108
1.986749999999993577e+01 5.026378481302688197e-108
2.008124999999994031e+01 6.600913259570384886e-108
2.029499999999994486e+01 7.023328279663643649e-108
2.050874999999993520e+01 5.275613458691200948e-108
2.072249999999993975e+01 3.544872637990637374e-109
2.093624999999994429e+01 -8.356538756621688885e-108
2.114999999999993463e+01 -2.057853978376080521e-107
2.136374999999993918e+01 -3.457590958617908717e-107
2.157749999999994373e+01 -4.670778808184839791e-107
2.179124999999993406e+01 -5.133831179219567538e-107
2.200499999999993861e+01 -4.140150747436221425e-107
2.221874999999994316e+01 -9.893848309076638176e-108
2.243249999999993349e+01 4.757279112006115717e-107
2.264624999999993804e+01 1.293171710114053986e-106
2.285999999999994259e+01 2.238400532095146164e-106
2.307374999999993292e+01 3.069363009773327304e-106
2.328749999999993747e+01 3.413445724163458455e-106
2.350124999999994202e+01 2.808905573140291665e-106
2.371499999999993236e+01 8.083473347499714445e-107
2.392874999999993690e+01 -2.849252296528918841e-106
2.414249999999994145e+01 -8.012232940503828784e-106
2.435624999999993179e+01 -1.388045318622782965e-105
2.456999999999993634e+01 -1.884080406447425236e-105
2.478374999999994088e+01 -2.048669019625864443e-105
2.499749999999993122e+01 -1.594677704599997588e-105
2.521124999999993577e+01 -2.622795729234956139e-106
2.542499999999994031e+01 2.064588705182948026e-105
2.563874999999993065e+01 5.212243078781927744e-105
2.585249999999993520e+01 8.575802099551455235e-105
2.606624999999993975e+01 1.103968862117321251e-104
2.627999999999994429e+01 1.103618542511497901e-104
2.649374999999993463e+01 6.821510765352514084e-105
2.670749999999993918e+01 -2.975827896036505494e-105
2.692124999999994373e+01 -1.854398660837808210e-104
2.713499999999993406e+01 -3.793268031744744273e-104
2.734874999999993861e+01 -5.621818994772637584e-104
2.756249999999994316e+01 -6.520626717321931587e-104
2.777624999999993349e+01 -5.419948182746751803e-104
2.798999999999993804e+01 -1.234360593616711272e-104
2.820374999999994259e+01 6.715226570805436332e-104
2.841749999999993292e+01 1.811291177690250610e-103
2.863124999999993747e+01 3.099392664838302653e-103
2.884499999999994202e+01 4.123066203246309400e-103
2.905874999999993236e+01 4.246840067459595651e-103
2.927249999999993690e+01 2.688720567760014140e-103
2.948624999999994145e+01 -1.285938671986271006e-103
2.969999999999993179e+01 -8.035745153068064129e-103
2.991374999999993634e+01 -1.710085807318436267e-102
3.012749999999994088e+01 -2.672770245548103999e-102
3.034124999999993122e+01 -3.351692583019029921e-102
3.055499999999993577e+01 -3.242530904962921344e-102
3.076874999999994031e+01 -1.739800087312248196e-102
3.098249999999993065e+01 1.711476408947599349e-102
3.119624999999993520e+01 7.363577499772433078e-102
3.140999999999993975e+01 1.482932109936335997e-101
3.162374999999993008e+01 2.272020346085739197e-101
3.183749999999993463e+01 2.837384557828126820e-101
3.205124999999993918e+01 2.784013770207305955e-101
3.226499999999992951e+01 1.633070606877488005e-101
3.247874999999993406e+01 -1.067567879407926269e-101
3.269249999999993861e+01 -5.556940877717684356e-101
3.290624999999992895e+01 -1.160804592137682702e-100
3.311999999999993349e+01 -1.824830961261247301e-100
3.333374999999993804e+01 -2.353308687193954185e-100
3.354749999999992838e+01 -2.449275429207259844e-100
3.376124999999993292e+01 -1.740297278380406884e-100
3.397499999999993747e+01 1.474161103368980702e-101
3.418874999999992781e+01 3.458503669874140238e-100
3.440249999999993236e+01 8.124962595130998216e-100
3.461624999999993690e+01 1.355393527593302585e-99
3.482999999999992724e+01 1.843875982921953177e-99
3.504374999999993179e+01 2.067536400584426726e-99
3.525749999999993634e+01 1.748999816285713675e-99
3.547124999999992667e+01 5.889493140438965007e-100
3.568499999999993122e+01 -1.648345855795075157e-99
3.589874999999993577e+01 -5.008456442103844291e-99
3.611249999999992610e+01 -9.192027885449107503e-99
3.632624999999993065e+01 -1.340332116650846477e-98
3.653999999999993520e+01 -1.625494376399681744e-98
3.675374999999992554e+01 -1.580062149792750150e-98
3.696749999999993008e+01 -9.776447248761805428e-99
3.718124999999993463e+01 3.880831244952532638e-99
3.739499999999992497e+01 2.621260105547042643e-98
3.760874999999992951e+01 5.616926994888508064e-98
3.782249999999993406e+01 8.946746487244393775e-98
3.803624999999993861e+01 1.176929440075151513e-97
3.824999999999994316e+01 1.281106714868681868e-97
3.846374999999991928e+01 1.047344752099604396e-97
3.867749999999992383e+01 3.118454630389701004e-98
3.889124999999992838e+01 -1.043487539637098048e-97
3.910499999999993292e+01 -3.021704831791790266e-97
3.931874999999993747e+01 -5.430307843785586259e-97
3.953249999999994202e+01 -7.807471998591946735e-97
3.974624999999991815e+01 -9.382858339614961561e-97
3.995999999999992269e+01 -9.108771432277895782e-97
4.017374999999992724e+01 -5.799370789441567314e-97
4.038749999999993179e+01 1.592910243726856388e-97
4.060124999999993634e+01 1.355791609403223657e-96
4.081499999999994088e+01 2.950005849045122458e-96
4.102874999999991701e+01 4.719369991998592557e-96
4.124249999999992156e+01 6.237854166132906908e-96
4.145624999999992610e+01 6.871207589294252922e-96
4.166999999999993065e+01 5.832888656245416814e-96
4.188374999999993520e+01 2.323406837377012718e-96
4.209749999999993975e+01 -4.234853461152952178e-96
4.231124999999991587e+01 -1.387648314727705344e-95
4.252499999999992042e+01 -2.572685576180013793e-95
4.273874999999992497e+01 -3.767243631868704531e-95
4.295249999999992951e+01 -4.619054663836535941e-95
4.316624999999993406e+01 -4.649234510711185969e-95
4.337999999999993861e+01 -3.313698854163935554e-95
4.359374999999991473e+01 -1.234498050863669368e-96
4.380749999999991928e+01 5.174627409774174043e-95
4.402124999999992383e+01 1.237179088227032342e-94
4.423499999999992838e+01 2.056470164886095699e-94
4.444874999999993292e+01 2.798046773858453371e-94
4.466249999999993747e+01 3.194739895631542828e-94
4.487624999999991360e+01 2.911139407241327207e-94
4.508999999999991815e+01 1.598793496909815597e-94
4.530374999999992269e+01 -1.010282257028877461e-94
4.551749999999992724e+01 -4.975293181661765508e-94
4.573124999999993179e+01 -9.999363174138483863e-94
4.594499999999993634e+01 -1.529429303769900641e-93
4.615874999999991246e+01 -1.950396022368602619e-93
4.637249999999991701e+01 -2.074443364415154894e-93
4.658624999999992156e+01 -1.682056873288771181e-93
4.679999999999992610e+01 -5.664340977385731615e-94
4.701374999999993065e+01 1.399609028170795171e-93
4.722749999999993520e+01 4.178824890428345849e-93
4.744124999999993975e+01 7.480203840934269131e-93
4.765499999999991587e+01 1.068783482236894195e-92
4.786874999999992042e+01 1.283907150764954700e-92
4.808249999999992497e+01 1.268768284339665826e-92
4.829624999999992951e+01 8.884825656541455327e-93
4.850999999999993406e+01 2.968746529637521935e-94
4.872374999999993861e+01 -1.354815483666935514e-92
4.893749999999991473e+01 -3.193486247558115865e-92
4.915124999999991928e+01 -5.245585392213819406e-92
4.936499999999992383e+01 -7.068165855203237870e-92
4.957874999999992838e+01 -8.019945086595512112e-92
4.979249999999993292e+01 -7.322530276985544203e-92
5.000624999999993747e+01 -4.195423537990415650e-92
5.021999999999991360e+01 1.929707743077416013e-92
5.043374999999991815e+01 1.112877017139643409e-91
5.064749999999992269e+01 2.267812918789986619e-91
5.086124999999992724e+01 3.478964944074387819e-91
5.107499999999993179e+01 4.448484027531354731e-91
5.128874999999993634e+01 4.772228159500554288e-91
5.150249999999991246e+01 3.988822598465689669e-91
5.171624999999991701e+01 1.672351852839460489e-91
5.192999999999992156e+01 -2.431749960227877614e-91
5.214374999999992610e+01 -8.240038233289969914e-91
5.235749999999993065e+01 -1.516141146817217434e-90
5.257124999999993520e+01 -2.196869344724705337e-90
5.278499999999991132e+01 -2.676930484129599263e-90
5.299874999999991587e+01 -2.713851242799788740e-90
5.321249999999992042e+01 -2.047038596010773437e-90
5.342624999999992497e+01 -4.573763682929456174e-91
5.363999999999992951e+01 2.151003647011251658e-90
5.385374999999993406e+01 5.656327172542935940e-90
5.406749999999991019e+01 9.630360317936749486e-90
5.428124999999991473e+01 1.328191379698960905e-89
5.449499999999991928e+01 1.546551196371027292e-89
5.470874999999992383e+01 1.478876912008648455e-89
5.492249999999992838e+01 9.844189525151370713e-90
5.513624999999993292e+01 -4.277957752756400030e-91
5.534999999999990905e+01 -1.626871779085261230e-89
5.556374999999991360e+01 -3.659043200040819021e-89
5.577749999999991815e+01 -5.853399169999799209e-89
5.599124999999992269e+01 -7.725316426040848291e-89
5.620499999999992724e+01 -8.610099203345438631e-89
5.641874999999993179e+01 -7.738831875692088624e-89
5.663249999999990791e+01 -4.382440088792924829e-89
5.684624999999991246e+01 1.936934469690057328e-89
5.705999999999991701e+01 1.118617491219962690e-88
5.727374999999992156e+01 2.255469222417153497e-88
5.748749999999992610e+01 3.424680804302212347e-88
5.770124999999993065e+01 4.341829122875769653e-88
5.791499999999990678e+01 4.635028073063816570e-88
5.812874999999991132e+01 3.894184937560553841e-88
5.834249999999991587e+01 1.756314310594011061e-88
5.855624999999992042e+01 -1.975985468971696257e-88
5.876999999999992497e+01 -7.195861908971129735e-88
5.898374999999992951e+01 -1.335834032986596954e-87
5.919749999999990564e+01 -1.938816470229904783e-87
5.941124999999991019e+01 -2.367492440361224822e-87
5.962499999999991473e+01 -2.420255962947100558e-87
5.983874999999991928e+01 -1.885058326379273041e-87
6.005249999999992383e+01 -5.879965599779527179e-88
6.026624999999992838e+01 1.542376682540872745e-87
6.047999999999990450e+01 4.403205334224009332e-87
6.069374999999990905e+01 7.652303345897694374e-87
6.090749999999991360e+01 1.067002949829041538e-86
6.112124999999991815e+01 1.257172026319709927e-86
6.133499999999992269e+01 1.229375475477191795e-86
6.154874999999992724e+01 8.769589882095032950e-87
6.176249999999993179e+01 1.197757157742909319e-87
6.197624999999990791e+01 -1.061842155600207586e-86
6.218999999999991246e+01 -2.590818658550243996e-86
6.240374999999991701e+01 -4.262742471912578706e-86
6.261749999999992156e+01 -5.731575731982522186e-86
6.283124999999992610e+01 -6.523635619004078688e-86
6.304499999999993065e+01 -6.090840280854972067e-86
6.325874999999990678e+01 -3.909964826706648248e-86
6.347249999999991132e+01 3.734529602452957076e-87
6.368624999999991587e+01 6.769811611146489742e-86
6.389999999999992042e+01 1.476662659813802068e-85
6.411374999999992497e+01 2.318914030252194141e-85
6.432749999999992951e+01 3.015528215596146923e-85
6.454124999999990564e+01 3.318421304148384316e-85
6.475499999999991019e+01 2.950939196255615536e-85
6.496874999999991473e+01 1.662190293588774773e-85
6.518249999999991928e+01 -6.974562379865508729e-86
6.539624999999992383e+01 -4.087774723224683522e-85
6.560999999999992838e+01 -8.192385615077208393e-85
6.582374999999990450e+01 -1.235734065804715670e-84
6.603749999999990905e+01 -1.558236762849194985e-84
6.625124999999991360e+01 -1.659346058959602955e-84
6.646499999999991815e+01 -1.401975748265787417e-84
6.667874999999992269e+01 -6.683348165055059866e-85
6.689249999999992724e+01 6.012927651446393326e-85
6.710624999999990337e+01 2.364629810403134955e-84
6.731999999999990791e+01 4.436604521215499095e-84
6.753374999999991246e+01 6.463269972282609948e-84
6.774749999999991701e+01 7.924203915073413341e-84
6.796124999999992156e+01 8.176988320874244977e-84
6.817499999999992610e+01 6.553786490301400412e-84
6.838874999999990223e+01 2.512222203426212265e-84
6.860249999999990678e+01 -4.169449213564828404e-84
6.881624999999991132e+01 -1.317867661318092359e-83
6.902999999999991587e+01 -2.347950754302286637e-83
6.924374999999992042e+01 -3.320631036396801806e-83
6.945749999999992497e+01 -3.970705781943211566e-83
6.967124999999990109e+01 -3.979925143640037471e-83
6.988499999999990564e+01 -3.028076593177564549e-83
7.009874999999991019e+01 -8.696654284838642940e-84
7.031249999999991473e+01 2.569863926754062742e-83
7.052624999999991928e+01 7.092108793083796390e-83
7.073999999999992383e+01 1.213972692212693046e-82
7.095374999999989996e+01 1.675506277118080097e-82
7.116749999999990450e+01 1.961504287102180222e-82
7.138124999999990905e+01 1.917095054181569370e-82
7.159499999999991360e+01 1.391027948609746986e-82
7.180874999999991815e+01 2.736833916314918458e-83
7.202249999999992269e+01 -1.456495818074047704e-82
7.223624999999989882e+01 -3.685205143354793316e-82
7.244999999999990337e+01 -6.123869363301754292e-82
7.266374999999990791e+01 -8.294282751120751249e-82
7.287749999999991246e+01 -9.550978174908523217e-82
7.309124999999991701e+01 -9.154014757965265700e-82
7.330499999999992156e+01 -6.398925600695683716e-82
7.351874999999989768e+01 -8.002120393155753237e-83
7.373249999999990223e+01 7.689603038983106249e-82
7.394624999999990678e+01 1.846022113209852242e-81
7.415999999999991132e+01 3.007451793606214151e-81
7.437374999999991587e+01 4.021376949816062634e-81
7.458749999999992042e+01 4.580361920575621156e-81
7.480124999999992497e+01 4.337589264272623412e-81
7.501499999999990109e+01 2.969184588643981622e-81
7.522874999999990564e+01 2.603295680663224981e-82
7.544249999999991019e+01 -3.793819923840504014e-81
7.565624999999991473e+01 -8.888975426697031851e-81
7.586999999999991928e+01 -1.433808972729026167e-80
7.608374999999992383e+01 -1.905202625131491818e-80
7.629749999999989996e+01 -2.160390120781103222e-80
7.651124999999990450e+01 -2.040059327029362422e-80
7.672499999999990905e+01 -1.397096732812018371e-80
7.693874999999991360e+01 -1.357931936909075288e-81
7.715249999999991815e+01 1.742810338583595564e-80
7.736624999999992269e+01 4.096989874153259511e-80
7.757999999999989882e+01 6.612436244280128785e-80
7.779374999999990337e+01 8.795016836367949734e-80
7.800749999999990791e+01 1.000087832070830782e-79
7.822124999999991246e+01 9.513764418088672915e-80
7.843499999999991701e+01 6.673159482893799564e-80
7.864874999999992156e+01 1.047047437276805502e-80
7.886249999999989768e+01 -7.369642308652722180e-80
7.907624999999990223e+01 -1.796384828426147549e-79
7.928999999999990678e+01 -2.936614177595356947e-79
7.950374999999991132e+01 -3.941922201157828330e-79
7.971749999999991587e+01 -4.530655994316969670e-79
7.993124999999992042e+01 -4.388228321560417999e-79
8.014499999999989654e+01 -3.221675339541661955e-79
8.035874999999990109e+01 -8.331151257283446390e-80
8.057249999999990564e+01 2.795830628383347217e-79
8.078624999999991019e+01 7.422345020415874854e-79
8.099999999999991473e+01 1.248233705656556832e-78
8.121374999999991928e+01 1.707411831899380987e-78
8.142749999999989541e+01 2.000780648783100817e-78
8.164124999999989996e+01 1.993745106068925074e-78
8.185499999999990450e+01 1.558220271536813860e-78
8.206874999999990905e+01 6.026446368277527367e-79
8.228249999999991360e+01 -8.932125758092147283e-79
8.249624999999991815e+01 -2.844038306360816352e-78
8.270999999999989427e+01 -5.032814371087016224e-78
8.292374999999989882e+01 -7.101495455672521512e-78
8.313749999999990337e+01 -8.567331409410165547e-78
8.335124999999990791e+01 -8.871823484123460927e-78
8.356499999999991246e+01 -7.465316482768003632e-78
8.377874999999991701e+01 -3.924050971186633904e-78
8.399249999999989313e+01 1.911438795138104148e-78
8.420624999999989768e+01 9.796438439831560591e-78
8.441999999999990223e+01 1.896859980982927994e-77
8.463374999999990678e+01 2.809432543185583169e-77
8.484749999999991132e+01 3.530921543749342389e-77
8.506124999999991587e+01 3.838104300562678649e-77
8.527499999999989200e+01 3.501009841786370429e-77
8.548874999999989654e+01 2.326006287932925944e-77
8.570249999999990109e+01 2.084191577268556843e-78
8.591624999999990564e+01 -2.812033973078881625e-77
8.612999999999991019e+01 -6.502756296424479114e-77
8.634374999999991473e+01 -1.040875751186212871e-76
8.655749999999989086e+01 -1.385489603105581948e-76
8.677124999999989541e+01 -1.599124304777223677e-76
8.698499999999989996e+01 -1.588885324752391286e-76
8.719874999999990450e+01 -1.268633822908375889e-76
8.741249999999990905e+01 -5.778274981049362327e-77
8.762624999999991360e+01 4.974454661778709703e-77
8.783999999999991815e+01 1.904332335148389743e-76
8.805374999999989427e+01 3.507988903856079477e-76
8.826749999999989882e+01 5.085767861870232091e-76
8.848124999999990337e+01 6.335196900505230588e-76
8.869499999999990791e+01 6.899175855650204368e-76
8.890874999999991246e+01 6.409975915492624683e-76
8.912249999999991701e+01 4.550913510087716046e-76
8.933624999999989313e+01 1.131187874115711442e-76
8.954999999999989768e+01 -3.834332392000690745e-76
8.976374999999990223e+01 -1.005211302979093927e-75
8.997749999999990678e+01 -1.689823056987692936e-75
9.019124999999991132e+01 -2.340372690529221119e-75
9.040499999999991587e+01 -2.829215780645540590e-75
9.061874999999989200e+01 -3.008129262232745474e-75
9.083249999999989654e+01 -2.725505602333744595e-75
9.104624999999990109e+01 -1.850327078948798515e-75
9.125999999999990564e+01 -3.015924570784615438e-76
9.147374999999991019e+01 1.919376506825170948e-75
9.168749999999991473e+01 4.697625924110237457e-75
9.190124999999989086e+01 7.779367014479805129e-75
9.211499999999989541e+01 1.075898448518826424e-74
9.232874999999989996e+01 1.308492509789603766e-74
9.254249999999990450e+01 1.409103874151826742e-74
9.275624999999990905e+01 1.305892332589630800e-74
9.296999999999991360e+01 9.314592345724526596e-75
9.318374999999988972e+01 2.359057095386473540e-75
9.339749999999989427e+01 -7.973027419482494826e-75
9.361124999999989882e+01 -2.133972881613158001e-74
9.382499999999990337e+01 -3.672507521555127867e-74
9.403874999999990791e+01 -5.231068808232118659e-74
9.425249999999991246e+01 -6.542657818550945412e-74
9.446624999999988859e+01 -7.262864865958734131e-74
9.467999999999989313e+01 -6.995193696593835826e-74
9.489374999999989768e+01 -5.338140414815093823e-74
9.510749999999990223e+01 -1.956254618416331027e-74
9.532124999999990678e+01 3.326076912972747984e-74
9.553499999999991132e+01 1.041454309487586205e-73
9.574874999999988745e+01 1.883161140216856180e-73
9.596249999999989200e+01 2.762071166602456679e-73
9.617624999999989654e+01 3.529597304960929846e-73
9.638999999999990109e+01 3.987101701084696266e-73
9.660374999999990564e+01 3.900152753660153231e-73
9.681749999999991019e+01 3.027076959194737479e-73
9.703124999999988631e+01 1.163248406817936962e-73
9.724499999999989086e+01 -1.800000745024087604e-73
9.745874999999989541e+01 -5.806620806987784163e-73
9.767249999999989996e+01 -1.056652958360342392e-72
9.788624999999990450e+01 -1.549987911367086533e-72
9.809999999999990905e+01 -1.971330946437992364e-72
9.831374999999988518e+01 -2.202905622951311191e-72
9.852749999999988972e+01 -2.108697631573688432e-72
9.874124999999989427e+01 -1.553402296713234084e-72
9.895499999999989882e+01 -4.304279967418694700e-73
9.916874999999990337e+01 1.302507199681954581e-72
9.938249999999990791e+01 3.583978201665527261e-72
9.959624999999988404e+01 6.212098155417601795e-72
9.980999999999988859e+01 8.819400706728056235e-72
1.000237499999998931e+02 1.087020251314999529e-71
1.002374999999998977e+02 1.169169673440003687e-71
1.004512499999999022e+02 1.054821678684712142e-71
1.006649999999999068e+02 6.763416258234447067e-72
1.008787499999998829e+02 -1.128128727762185069e-73
1.010924999999998875e+02 -1.010682495954248986e-71
1.013062499999998920e+02 -2.262031228542392937e-71
1.015199999999998965e+02 -3.626653624707464481e-71
1.017337499999999011e+02 -4.879508644641468828e-71
1.019474999999999056e+02 -5.716147260974247356e-71
1.021612499999999102e+02 -5.779305997080833765e-71
1.023749999999998863e+02 -4.708495455330901647e-71
1.025887499999998909e+02 -2.212630929101627581e-71
1.028024999999998954e+02 1.839065415362917326e-71
1.030162499999999000e+02 7.318633089830541360e-71
1.032299999999999045e+02 1.375052783728113876e-70
1.034437499999999091e+02 2.025507825455748843e-70
1.036574999999998852e+02 2.555026140317966919e-70
1.038712499999998897e+02 2.803710427384244798e-70
1.040849999999998943e+02 2.598768840157331646e-70
1.042987499999998988e+02 1.784166742236285420e-70
1.045124999999999034e+02 2.597224517800827802e-71
1.047262499999999079e+02 -1.974329387928029869e-70
1.049399999999998840e+02 -4.774129853039884423e-70
1.051537499999998886e+02 -7.819813360214781159e-70
1.053674999999998931e+02 -1.060522993432355394e-69
1.055812499999998977e+02 -1.246128814736394101e-69
1.057949999999999022e+02 -1.262238543350691367e-69
1.060087499999999068e+02 -1.034052044440952083e-69
1.062224999999998829e+02 -5.043815847899537033e-70
1.064362499999998875e+02 3.474299113175587381e-70
1.066499999999998920e+02 1.486100517997492293e-69
1.068637499999998965e+02 2.804255538377868874e-69
1.070774999999999011e+02 4.114155263001238996e-69
1.072912499999999056e+02 5.152227628811104906e-69
1.075049999999998818e+02 5.600739283864396345e-69
1.077187499999998863e+02 5.129222875532551270e-69
1.079324999999998909e+02 3.455332437413542019e-69
1.081462499999998954e+02 4.207291534083386141e-70
1.083599999999999000e+02 -3.927213311165558000e-69
1.085737499999999045e+02 -9.261966809030280615e-69
1.087874999999998806e+02 -1.493071514561308348e-68
1.090012499999998852e+02 -1.995345961662513722e-68
1.092149999999998897e+02 -2.308689985443478010e-68
1.094287499999998943e+02 -2.296594361920020228e-68
1.096424999999998988e+02 -1.832519791518345376e-68
1.098562499999999034e+02 -8.287714672017719151e-69
1.100699999999998795e+02 7.310130985481700360e-69
1.102837499999998840e+02 2.760804315155292149e-68
1.104974999999998886e+02 5.049255708609591407e-68
1.107112499999998931e+02 7.252587614691026481e-68
1.109249999999998977e+02 8.910759966724629485e-68
1.111387499999999022e+02 9.492659494596751278e-68
1.113524999999998784e+02 8.472467366769678532e-68
1.115662499999998829e+02 5.434038543076209370e-68
1.117799999999998875e+02 1.934080031892074952e-69
1.119937499999998920e+02 -7.077741426446364491e-68
1.122074999999998965e+02 -1.575142644116642660e-67
1.124212499999999011e+02 -2.469368828563058943e-67
1.126349999999998772e+02 -3.229452864640391537e-67
1.128487499999998818e+02 -3.660111217605686567e-67
1.130624999999998863e+02 -3.556645008728877503e-67
1.132762499999998909e+02 -2.740776553886537580e-67
1.134899999999998954e+02 -1.104530382196330276e-67
1.137037499999999000e+02 1.343388055740679963e-67
1.139174999999998761e+02 4.436752672995083766e-67
1.141312499999998806e+02 7.826375433728430230e-67
1.143449999999998852e+02 1.098048494618281146e-66
1.145587499999998897e+02 1.322009056139690775e-66
1.147724999999998943e+02 1.379502451259597488e-66
1.149862499999998988e+02 1.200055715204150885e-66
1.151999999999998749e+02 7.326666049434723372e-67
1.154137499999998795e+02 -3.769847797402240052e-68
1.156274999999998840e+02 -1.074621289440505537e-66
1.158412499999998886e+02 -2.279053734025896538e-66
1.160549999999998931e+02 -3.486053822604504544e-66
1.162687499999998977e+02 -4.472782781648183766e-66
1.164824999999999022e+02 -4.980121430025927243e-66
1.166962499999998784e+02 -4.748489821513051852e-66
1.169099999999998829e+02 -3.565968830965671629e-66
1.171237499999998875e+02 -1.323860869823867543e-66
1.173374999999998920e+02 1.928206086155350101e-66
1.175512499999998965e+02 5.938078776993423739e-66
1.177649999999999011e+02 1.022965802190593310e-65
1.179787499999998772e+02 1.411579389328044874e-65
1.181924999999998818e+02 1.675441615025089793e-65
1.184062499999998863e+02 1.725167481321602198e-65
1.186199999999998909e+02 1.480834516129530587e-65
1.188337499999998954e+02 8.896504899197883843e-66
1.190474999999999000e+02 -5.562966587310328538e-67
1.192612499999998761e+02 -1.300682320496171442e-65
1.194749999999998806e+02 -2.719690118575470874e-65
1.196887499999998852e+02 -4.115259574842590659e-65
1.199024999999998897e+02 -5.231292496082939215e-65
1.201162499999998943e+02 -5.780514836461508708e-65
1.203299999999998988e+02 -5.486209789833154364e-65
1.205437499999998749e+02 -4.134966991784105697e-65
1.207574999999998795e+02 -1.634277978305489415e-65
1.209712499999998840e+02 1.933942842944332689e-65
1.211849999999998886e+02 6.274774587963309579e-65
1.213987499999998931e+02 1.086804057033487185e-64
1.216124999999998977e+02 1.499240174836129895e-64
1.218262499999998738e+02 1.779218297654879446e-64
1.220399999999998784e+02 1.838749098073006001e-64
1.222537499999998829e+02 1.602057259530058499e-64
1.224674999999998875e+02 1.022285980887470787e-64
1.226812499999998920e+02 9.790594529143845584e-66
1.228949999999998965e+02 -1.114143490457152024e-64
1.231087499999998727e+02 -2.491793587866204619e-64
1.233224999999998772e+02 -3.850606979023436554e-64
1.235362499999998818e+02 -4.958027739094247418e-64
1.237499999999998863e+02 -5.559712215561821132e-64
1.239637499999998909e+02 -5.416561685883304258e-64
1.241774999999998954e+02 -4.348843396678577681e-64
1.243912499999998715e+02 -2.281626557909249434e-64
1.246049999999998761e+02 7.159135732040000688e-65
1.248187499999998806e+02 4.405531195849516091e-64
1.250324999999998852e+02 8.376978311765567295e-64
1.252462499999998897e+02 1.207279583536673158e-63
1.254599999999998943e+02 1.484303882735651200e-63
1.256737499999998704e+02 1.602748826407833192e-63
1.258874999999998749e+02 1.505765019924453069e-63
1.261012499999998795e+02 1.156583592175396917e-63