2.024999999999579359e-01 1.180420423814382296e-114
4.162499999999482725e-01 -1.073011318672763546e-114
6.299999999999528200e-01 -5.222277569957891735e-114
8.437499999999573674e-01 -1.126065798550302804e-113
1.057499999999947704e+00 -1.825389354833216943e-113
1.271249999999952252e+00 -2.381748343022409437e-113
1.484999999999956799e+00 -2.374846188262322490e-113
1.698749999999947136e+00 -1.214888509942007328e-113
1.912499999999951683e+00 1.751015765886162737e-113
2.126249999999956231e+00 6.992366403522895733e-113
2.339999999999946567e+00 1.438220867045513467e-112
2.553749999999951115e+00 2.264291717932995070e-112
2.767499999999955662e+00 2.876863309478648113e-112
2.981249999999945999e+00 2.767222395249856983e-112
3.194999999999950546e+00 1.244916828224642278e-112
3.408749999999955094e+00 -2.424321223261878597e-112
3.622499999999945430e+00 -8.721271461490285576e-112
3.836249999999949978e+00 -1.739482312953555291e-111
4.049999999999954525e+00 -2.684274080069587631e-111
4.263749999999944862e+00 -3.349642410605580024e-111
4.477499999999949409e+00 -3.149539667142917627e-111
4.691249999999953957e+00 -1.308567410036813057e-111
4.904999999999944293e+00 2.972807582575288349e-111
5.118749999999948841e+00 1.017978484739277878e-110
5.332499999999953388e+00 1.995530327593568933e-110
5.546249999999943725e+00 3.043592883226399647e-110
5.759999999999948272e+00 3.761718612812874774e-110
5.973749999999952820e+00 3.505993756252404107e-110
6.187499999999943157e+00 1.439603997807933025e-110
6.401249999999947704e+00 -3.282554976402657158e-110
6.614999999999952252e+00 -1.114884497083420119e-109
6.828749999999942588e+00 -2.173448716609588584e-109
7.042499999999947136e+00 -3.301637458524467741e-109
7.256249999999951683e+00 -4.073669299764317260e-109
7.469999999999942020e+00 -3.813798770277406455e-109
7.683749999999946567e+00 -1.653227922946421592e-109
7.897499999999951115e+00 3.276342194843804505e-109
8.111249999999941451e+00 1.146878731672993442e-108
8.324999999999945999e+00 2.248251890575404492e-108
8.538749999999950546e+00 3.425932089582676555e-108
8.752499999999940883e+00 4.250254060611151132e-108
8.966249999999945430e+00 4.043267684727801863e-108
9.179999999999949978e+00 1.936798718362007930e-108
9.393749999999940314e+00 -2.936436510485643421e-108
9.607499999999944862e+00 -1.107833994880892048e-107
9.821249999999949409e+00 -2.208350337986949752e-107
1.003499999999993975e+01 -3.398609431671755300e-107
1.024874999999994429e+01 -4.266710625577862578e-107
1.046249999999994884e+01 -4.162106575993896344e-107
1.067624999999993918e+01 -2.249798294679136532e-107
1.088999999999994373e+01 2.311533549003996363e-107
1.110374999999994827e+01 1.003100102000654005e-106
1.131749999999993861e+01 2.058365425165394901e-106
1.153124999999994316e+01 3.220625223356531031e-106
1.174499999999994770e+01 4.114612805256874158e-106
1.195874999999993804e+01 4.143188726976946365e-106
1.217249999999994259e+01 2.533711016542823223e-106
1.238624999999994714e+01 -1.505059013586583978e-106
1.259999999999993747e+01 -8.483148198216525021e-106
1.281374999999994202e+01 -1.818361765528793160e-105
1.302749999999994657e+01 -2.912321715202246677e-105
1.324124999999995111e+01 -3.805324775266828221e-105
1.345499999999994145e+01 -3.973158831504170322e-105
1.366874999999994600e+01 -2.728456063086361672e-105
1.388249999999995055e+01 6.486709167841637228e-106
1.409624999999994088e+01 6.657353543355469487e-105
1.430999999999994543e+01 1.519616410482559303e-104
1.452374999999994998e+01 2.509879787339871485e-104
1.473749999999994031e+01 3.369469144897332120e-104
1.495124999999994486e+01 3.658455981412306354e-104
1.516499999999994941e+01 2.789411355740622788e-104
1.537874999999993975e+01 1.301219962909324923e-105
1.559249999999994429e+01 -4.792315130845088668e-104
1.580624999999994884e+01 -1.198108404591773255e-103
1.601999999999993918e+01 -2.058436374404585193e-103
1.623374999999994373e+01 -2.852028898967069627e-103
1.644749999999994827e+01 -3.226180491317107431e-103
1.666124999999993861e+01 -2.699072319367656267e-103
1.687499999999994316e+01 -7.358822099129602805e-104
1.708874999999994770e+01 3.094402021946221010e-103
1.730249999999993804e+01 8.875700864938762954e-103
1.751624999999994259e+01 1.603690425572880794e-102
1.772999999999994714e+01 2.304219641883167597e-102
1.794374999999993747e+01 2.719253521357268322e-102
1.815749999999994202e+01 2.469844864534430232e-102
1.837124999999994657e+01 1.120941152302553713e-102
1.858499999999993690e+01 -1.703829828600341678e-102
1.879874999999994145e+01 -6.139387355326296684e-102
1.901249999999994600e+01 -1.184230564179790556e-101
1.922624999999993634e+01 -1.774395456671800311e-101
1.943999999999994088e+01 -2.187522679411077386e-101
1.965374999999994543e+01 -2.138079775796760473e-101
1.986749999999993577e+01 -1.286237276590071326e-101
2.008124999999994031e+01 6.821936191620345914e-102
2.029499999999994486e+01 3.924205552682957161e-101
2.050874999999993520e+01 8.264303896796793547e-101
2.072249999999993975e+01 1.300482862834701498e-100
2.093624999999994429e+01 1.677828688850187436e-100
2.114999999999993463e+01 1.752527495989977645e-100
2.136374999999993918e+01 1.269937320582228511e-100
2.157749999999994373e+01 -2.043480324443906381e-102
2.179124999999993406e+01 -2.274274196868841234e-100
2.200499999999993861e+01 -5.427762116104343670e-100
2.221874999999994316e+01 -9.057251871128501825e-100
2.243249999999993349e+01 -1.226062635106151786e-99
2.264624999999993804e+01 -1.361731562959263720e-99
2.285999999999994259e+01 -1.129812918798176626e-99
2.307374999999993292e+01 -3.395880283758167546e-100
2.328749999999993747e+01 1.147698979312358885e-99
2.350124999999994202e+01 3.333601444191364482e-99
2.371499999999993236e+01 5.982581378662083291e-99
2.392874999999993690e+01 8.531054127900844120e-99
2.414249999999994145e+01 1.004272854975746211e-98
2.435624999999993179e+01 9.258439499535905562e-99
2.456999999999993634e+01 4.790800585933238778e-99
2.478374999999994088e+01 -4.499408296041273303e-99
2.499749999999993122e+01 -1.894352177300448660e-98
2.521124999999993577e+01 -3.738095664345067324e-98
2.542499999999994031e+01 -5.649302621609098788e-98
2.563874999999993065e+01 -7.039016360667120219e-98
2.585249999999993520e+01 -7.076759666573370919e-98
2.606624999999993975e+01 -4.797388147071415533e-98
2.627999999999994429e+01 6.728396061704323164e-99
2.649374999999993463e+01 9.763328726101169455e-98
2.670749999999993918e+01 2.200847595668600160e-97
2.692124999999994373e+01 3.558073326229501144e-97
2.713499999999993406e+01 4.695013385326267316e-97
2.734874999999993861e+01 5.086901338871425158e-97
2.756249999999994316e+01 4.090942282682724268e-97
2.777624999999993349e+01 1.075435799924769895e-97
2.798999999999993804e+01 -4.366616858948988534e-97
2.820374999999994259e+01 -1.213174115472651050e-96
2.841749999999993292e+01 -2.129221267667475021e-96
2.863124999999993747e+01 -2.983730397301732185e-96
2.884499999999994202e+01 -3.459054520826244544e-96
2.905874999999993236e+01 -3.144811978007426825e-96
2.927249999999993690e+01 -1.607678975047894816e-96
2.948624999999994145e+01 1.484616383655832103e-96
2.969999999999993179e+01 6.188815824480573312e-96
2.991374999999993634e+01 1.208358910338554849e-95
3.012749999999994088e+01 1.808522497051791618e-95
3.034124999999993122e+01 2.235264388637410820e-95
3.055499999999993577e+01 2.237119235495285183e-95
3.076874999999994031e+01 1.530654149947115967e-95
3.098249999999993065e+01 -1.306032947596620316e-96
3.119624999999993520e+01 -2.853559679569484495e-95
3.140999999999993975e+01 -6.479740695176675784e-95
3.162374999999993008e+01 -1.046093571479323154e-94
3.183749999999993463e+01 -1.377659870609564390e-94
3.205124999999993918e+01 -1.494633251024684317e-94
3.226499999999992951e+01 -1.219541774587436958e-94
3.247874999999993406e+01 -3.820700970066220897e-95
3.269249999999993861e+01 1.122826668925855238e-94
3.290624999999992895e+01 3.259596143112006685e-94
3.311999999999993349e+01 5.772042357551917205e-94
3.333374999999993804e+01 8.120574606621797049e-94
3.354749999999992838e+01 9.467502589023803960e-94
3.376124999999993292e+01 8.745846327421656051e-94
3.397499999999993747e+01 4.843789952987423366e-94
3.418874999999992781e+01 -3.078577871741309202e-94
3.440249999999993236e+01 -1.515412782643219383e-93
3.461624999999993690e+01 -3.031468526130661371e-93
3.482999999999992724e+01 -4.585381851792981099e-93
3.504374999999993179e+01 -5.721794226873936878e-93
3.525749999999993634e+01 -5.823536259655890769e-93
3.547124999999992667e+01 -4.199024480442611507e-93
3.568499999999993122e+01 -2.480235153525562785e-94
3.589874999999993577e+01 6.295758396524826969e-93
3.611249999999992610e+01 1.507139735483876525e-92
3.632624999999993065e+01 2.480500553382807623e-92
3.653999999999993520e+01 3.312395960936992515e-92
3.675374999999992554e+01 3.659087971117987651e-92
3.696749999999993008e+01 3.108481150204026063e-92
3.718124999999993463e+01 1.263050181127288839e-92
3.739499999999992497e+01 -2.129732964505100323e-92
3.760874999999992951e+01 -7.009609192714077301e-92
3.782249999999993406e+01 -1.282622436180160475e-91
3.803624999999993861e+01 -1.840035904430163999e-91
3.824999999999994316e+01 -2.188985757279743632e-91
3.846374999999991928e+01 -2.093560657640871405e-91
3.867749999999992383e+01 -1.305488832297389549e-91
3.889124999999992838e+01 3.683974172703188387e-92
3.910499999999993292e+01 2.973603952224577402e-91
3.931874999999993747e+01 6.302823059706193433e-91
3.953249999999994202e+01 9.802184315183282357e-91
3.974624999999991815e+01 1.252420591637494864e-90
3.995999999999992269e+01 1.317031695296429006e-90
4.017374999999992724e+01 1.026510338037955326e-90
4.038749999999993179e+01 2.490583050109664956e-91
4.060124999999993634e+01 -1.082198902809905859e-90
4.081499999999994088e+01 -2.909409332571204846e-90
4.102874999999991701e+01 -4.991009118939117413e-90
4.124249999999992156e+01 -6.861703159117053655e-90
4.145624999999992610e+01 -7.834903008011347648e-90
4.166999999999993065e+01 -7.072663191623859630e-90
4.188374999999993520e+01 -3.743164071550909521e-90
4.209749999999993975e+01 2.728196828387566758e-90
4.231124999999991587e+01 1.233225866759166891e-89
4.252499999999992042e+01 2.412562146735479999e-89
4.273874999999992497e+01 3.594585010873331347e-89
4.295249999999992951e+01 4.431626430971079231e-89
4.316624999999993406e+01 4.468228406537891172e-89
4.337999999999993861e+01 3.210809131052713084e-89
4.359374999999991473e+01 2.503180649483800168e-90
4.380749999999991928e+01 -4.566661356650422519e-89
4.402124999999992383e+01 -1.093989392305144160e-88
4.423499999999992838e+01 -1.793281473601971013e-88
4.444874999999993292e+01 -2.386799691441691959e-88
4.466249999999993747e+01 -2.637779697735100951e-88
4.487624999999991360e+01 -2.268720109345939035e-88
4.508999999999991815e+01 -1.018328042844793231e-88
4.530374999999992269e+01 1.272619590926665965e-88
4.551749999999992724e+01 4.554549075960567987e-88
4.573124999999993179e+01 8.460365179083738395e-88
4.594499999999993634e+01 1.222523323855101478e-87
4.615874999999991246e+01 1.467490745472366184e-87
4.637249999999991701e+01 1.432607504263995211e-87
4.658624999999992156e+01 9.634967057743248980e-88
4.679999999999992610e+01 -5.914550508452725287e-89
4.701374999999993065e+01 -1.664623817511671996e-87
4.722749999999993520e+01 -3.731376382342178334e-87
4.744124999999993975e+01 -5.934299295109899894e-87
4.765499999999991587e+01 -7.720189683916052148e-87
4.786874999999992042e+01 -8.334608410917095271e-87
4.808249999999992497e+01 -6.922057563370726743e-87
4.829624999999992951e+01 -2.712852517684220731e-87
4.850999999999993406e+01 4.707164778662132152e-87
4.872374999999993861e+01 1.507388924649592191e-86
4.893749999999991473e+01 2.713121813622598033e-86
4.915124999999991928e+01 3.842110244549859611e-86
4.936499999999992383e+01 4.529640905797660212e-86
4.957874999999992838e+01 4.327959125237092685e-86
4.979249999999993292e+01 2.786129515064112981e-86
5.000624999999993747e+01 -4.238950707392376910e-87
5.021999999999991360e+01 -5.344664099821666651e-86
5.043374999999991815e+01 -1.155956278605254824e-85
5.064749999999992269e+01 -1.805102973117268115e-85
5.086124999999992724e+01 -2.314866557818823990e-85
5.107499999999993179e+01 -2.463230876553917294e-85
5.128874999999993634e+01 -2.004777465367281021e-85
5.150249999999991246e+01 -7.265180350439983282e-86
5.171624999999991701e+01 1.474186538663491711e-85
5.192999999999992156e+01 4.499210064047952794e-85
5.214374999999992610e+01 7.965164820067161384e-85
5.235749999999993065e+01 1.115177748085720613e-84
5.257124999999993520e+01 1.301577530536398521e-84
5.278499999999991132e+01 1.230259861029456840e-84
5.299874999999991587e+01 7.778721251667448758e-85
5.321249999999992042e+01 -1.413762307373233154e-85
5.342624999999992497e+01 -1.531177105896070133e-84
5.363999999999992951e+01 -3.266906578991874730e-84
5.385374999999993406e+01 -5.059632586426343024e-84
5.406749999999991019e+01 -6.445908464881603948e-84
5.428124999999991473e+01 -6.820239720096017201e-84
5.449499999999991928e+01 -5.524480614693139223e-84
5.470874999999992383e+01 -2.000420522901945043e-84
5.492249999999992838e+01 4.002224529966207692e-84
5.513624999999993292e+01 1.218966953531851587e-83
5.534999999999990905e+01 2.150946408150850892e-83
5.556374999999991360e+01 3.002797009894992420e-83
5.577749999999991815e+01 3.498307618265063342e-83
5.599124999999992269e+01 3.309190345077715791e-83
5.620499999999992724e+01 2.116619295224423413e-83
5.641874999999993179e+01 -2.967837029673880321e-84
5.663249999999990791e+01 -3.933315116577627870e-83
5.684624999999991246e+01 -8.464288484567620875e-83
5.705999999999991701e+01 -1.314216427558255213e-82
5.727374999999992156e+01 -1.677946842921708949e-82
5.748749999999992610e+01 -1.783566495722983172e-82
5.770124999999993065e+01 -1.464566750361623549e-82
5.791499999999990678e+01 -5.803139518035410996e-83
5.812874999999991132e+01 9.323146485349525905e-83
5.834249999999991587e+01 3.000892917101166982e-82
5.855624999999992042e+01 5.365257077798479316e-82
5.876999999999992497e+01 7.548263021588869793e-82
5.898374999999992951e+01 8.869366594221205504e-82
5.919749999999990564e+01 8.519799300849782978e-82
5.941124999999991019e+01 5.711405093427618565e-82
5.962499999999991473e+01 -1.022094058441847367e-83
5.983874999999991928e+01 -8.953558813458243868e-82
6.005249999999992383e+01 -2.008419129519827153e-81
6.026624999999992838e+01 -3.173374310242791620e-81
6.047999999999990450e+01 -4.108540354601028636e-81
6.069374999999990905e+01 -4.446310273827788491e-81
6.090749999999991360e+01 -3.785810922283175540e-81
6.112124999999991815e+01 -1.781551506727280887e-81
6.133499999999992269e+01 1.736831543685631650e-81
6.154874999999992724e+01 6.629328171486921430e-81
6.176249999999993179e+01 1.232244973681779103e-80
6.197624999999990791e+01 1.773681528336349475e-80
6.218999999999991246e+01 2.131030169819729842e-80
6.240374999999991701e+01 2.115939536220618468e-80
6.261749999999992156e+01 1.540685915505805683e-80
6.283124999999992610e+01 2.674627135524672744e-81
6.304499999999993065e+01 -1.730279344297134419e-80
6.325874999999990678e+01 -4.304306450181463387e-80
6.347249999999991132e+01 -7.081291008595069545e-80
6.368624999999991587e+01 -9.445427657710549370e-80
6.389999999999992042e+01 -1.057504573180819263e-79
6.411374999999992497e+01 -9.550871368488737227e-80
6.432749999999992951e+01 -5.543912349849696546e-80
6.454124999999990564e+01 1.925612865239507082e-80
6.475499999999991019e+01 1.268944002915691871e-79
6.496874999999991473e+01 2.564938818673338952e-79
6.518249999999991928e+01 3.859318337789430614e-79
6.539624999999992383e+01 4.820365580492943515e-79
6.560999999999992838e+01 5.035482113086444943e-79
6.582374999999990450e+01 4.076123351700822785e-79
6.603749999999990905e+01 1.598962920449339322e-79
6.625124999999991360e+01 -2.524589210595981067e-79
6.646499999999991815e+01 -8.069457037308358744e-79
6.667874999999992269e+01 -1.433915985462591338e-78
6.689249999999992724e+01 -2.010945255700197262e-78
6.710624999999990337e+01 -2.367761097989942751e-78
6.731999999999990791e+01 -2.305650422603498343e-78
6.753374999999991246e+01 -1.633511927290869488e-78
6.774749999999991701e+01 -2.195824152241400866e-79
6.796124999999992156e+01 1.946541921477411798e-78
6.817499999999992610e+01 4.692147878900021154e-78
6.838874999999990223e+01 7.615493081073337668e-78
6.860249999999990678e+01 1.007485533054574688e-77
6.881624999999991132e+01 1.123211086759113882e-77
6.902999999999991587e+01 1.016619629821030705e-77
6.924374999999992042e+01 6.061764724808459877e-78
6.945749999999992497e+01 -1.537797362440931734e-78
6.967124999999990109e+01 -1.244494814997155518e-77
6.988499999999990564e+01 -2.556533432265607517e-77
7.009874999999991019e+01 -3.873361812087150329e-77
7.031249999999991473e+01 -4.873504744864309270e-77
7.052624999999991928e+01 -5.159548713735441623e-77
7.073999999999992383e+01 -4.319558126507258343e-77
7.095374999999989996e+01 -2.021128562497148519e-77
7.116749999999990450e+01 1.869599702001298675e-77
7.138124999999990905e+01 7.161356585314782807e-77
7.159499999999991360e+01 1.323096089258825616e-76
7.180874999999991815e+01 1.897166429635141346e-76
7.202249999999992269e+01 2.283496123711825620e-76
7.223624999999989882e+01 2.299928269662398009e-76
7.244999999999990337e+01 1.768366052779517115e-76
7.266374999999990791e+01 5.597642585900993711e-77
7.287749999999991246e+01 -1.351830935960843543e-76
7.309124999999991701e+01 -3.835071372860855765e-76
7.330499999999992156e+01 -6.559931183912345047e-76
7.351874999999989768e+01 -8.985050440462416332e-76
7.373249999999990223e+01 -1.039004745748409339e-75
7.394624999999990678e+01 -9.965667334128453771e-76
7.415999999999991132e+01 -6.966618172069818247e-76
7.437374999999991587e+01 -9.191214099714636934e-77
7.458749999999992042e+01 8.141528769654634173e-76
7.480124999999992497e+01 1.944649370347854791e-75
7.501499999999990109e+01 3.134150084918082175e-75
7.522874999999990564e+01 4.127661906651586071e-75
7.544249999999991019e+01 4.600421226533638358e-75
7.565624999999991473e+01 4.203202553361859343e-75
7.586999999999991928e+01 2.633886526313132039e-75
7.608374999999992383e+01 -2.698598932219362141e-76
7.629749999999989996e+01 -4.429242651994464314e-75
7.651124999999990450e+01 -9.434401814556604503e-75
7.672499999999990905e+01 -1.449218888515605895e-74
7.693874999999991360e+01 -1.844078644238671488e-74
7.715249999999991815e+01 -1.985748468364756444e-74
7.736624999999992269e+01 -1.727567659137871532e-74
7.757999999999989882e+01 -9.508577872610682356e-75
7.779374999999990337e+01 3.948964348043965214e-75
7.800749999999990791e+01 2.250012542650745070e-74
7.822124999999991246e+01 4.409729649049092881e-74
7.843499999999991701e+01 6.507770775849614756e-74
7.864874999999992156e+01 8.030277453795245059e-74
7.886249999999989768e+01 8.370181084918752995e-74
7.907624999999990223e+01 6.927053007428562150e-74
7.928999999999990678e+01 3.249096572226296313e-74
7.950374999999991132e+01 -2.797291930469960816e-74
7.971749999999991587e+01 -1.085768290890705415e-73
7.993124999999992042e+01 -1.995866448690706817e-73
8.014499999999989654e+01 -2.846288798102485746e-73
8.035874999999990109e+01 -3.415766126358725437e-73
8.057249999999990564e+01 -3.451430104467496009e-73
8.078624999999991019e+01 -2.713209218837289139e-73
8.099999999999991473e+01 -1.034414936222555883e-73
8.121374999999991928e+01 1.608446515391311587e-73
8.142749999999989541e+01 5.028696040068088705e-73
8.164124999999989996e+01 8.781890845170529723e-73
8.185499999999990450e+01 1.215678236482847893e-72
8.206874999999990905e+01 1.422330997277104164e-72
8.228249999999991360e+01 1.395092929283325911e-72
8.249624999999991815e+01 1.040015593354203220e-72
8.270999999999989427e+01 2.974736954498898393e-73
8.292374999999989882e+01 -8.297249225964183786e-73
8.313749999999990337e+01 -2.250499179256748016e-72
8.335124999999990791e+01 -3.768742486732496390e-72
8.356499999999991246e+01 -5.083276826743721779e-72
8.377874999999991701e+01 -5.811539607155685359e-72
8.399249999999989313e+01 -5.541599724021525423e-72
8.420624999999989768e+01 -3.912617852292513773e-72
8.441999999999990223e+01 -7.174956141361146486e-73
8.463374999999990678e+01 3.986144808077458006e-72
8.484749999999991132e+01 9.778140004141995974e-72
8.506124999999991587e+01 1.581856516825482149e-71
8.527499999999989200e+01 2.086079978152109286e-71
8.548874999999989654e+01 2.336107195504654596e-71
8.570249999999990109e+01 2.169987514494808569e-71
8.591624999999990564e+01 1.451197137025875859e-71
8.612999999999991019e+01 1.096090848189646244e-72
8.634374999999991473e+01 -1.815419843668321579e-71
8.655749999999989086e+01 -4.138567895224145447e-71
8.677124999999989541e+01 -6.509495024149184720e-71
8.698499999999989996e+01 -8.422587969959973391e-71
8.719874999999990450e+01 -9.265121598427759227e-71
8.741249999999990905e+01 -8.408857877542542102e-71
8.762624999999991360e+01 -5.342532829387088222e-71
8.783999999999991815e+01 1.673889815974764374e-72
8.805374999999989427e+01 7.911665722157765960e-71
8.826749999999989882e+01 1.710355518957009833e-70
8.848124999999990337e+01 2.631634942955913271e-70
8.869499999999990791e+01 3.353613310892897637e-70
8.890874999999991246e+01 3.636474879340957015e-70
8.912249999999991701e+01 3.238910158423021847e-70
8.933624999999989313e+01 1.970301033680391148e-70
8.954999999999989768e+01 -2.471054609023173872e-71
8.976374999999990223e+01 -3.315588773536705310e-70
8.997749999999990678e+01 -6.912380064562555095e-70
9.019124999999991132e+01 -1.046912959672583417e-69
9.040499999999991587e+01 -1.319649598207326790e-69
9.061874999999989200e+01 -1.416654800163443050e-69
9.083249999999989654e+01 -1.245818979909972707e-69
9.104624999999990109e+01 -7.359255685162157603e-70
9.125999999999990564e+01 1.395837902087277726e-70
9.147374999999991019e+01 1.339002134125800781e-69
9.168749999999991473e+01 2.734055984844377733e-69
9.190124999999989086e+01 4.102949179893064913e-69
9.211499999999989541e+01 5.140736011048798138e-69
9.232874999999989996e+01 5.491649227567554586e-69
9.254249999999990450e+01 4.805127992876373769e-69
9.275624999999990905e+01 2.812911069586819841e-69
9.296999999999991360e+01 -5.809680989873217215e-70
9.318374999999988972e+01 -5.211394662156713386e-69
9.339749999999989427e+01 -1.058396804184643871e-68
9.361124999999989882e+01 -1.584995331536633921e-68
9.382499999999990337e+01 -1.984661967397120856e-68
9.403874999999990791e+01 -2.122001780800246072e-68
9.425249999999991246e+01 -1.863645691508194794e-68
9.446624999999988859e+01 -1.107265010369671013e-68
9.467999999999989313e+01 1.845985542238484250e-69
9.489374999999989768e+01 1.951136914090026865e-68
9.510749999999990223e+01 4.007507501460050689e-68
9.532124999999990678e+01 6.035072733609075282e-68
9.553499999999991132e+01 7.595914940502989831e-68
9.574874999999988745e+01 8.178011266112775905e-68
9.596249999999989200e+01 7.273512449642690419e-68
9.617624999999989654e+01 4.486605107998245744e-68
9.638999999999990109e+01 -3.400841924005109931e-69
9.660374999999990564e+01 -6.999696141969998402e-68
9.681749999999991019e+01 -1.482235490982171243e-67
9.703124999999988631e+01 -2.263433844330689319e-67
9.724499999999989086e+01 -2.880602955007173549e-67
9.745874999999989541e+01 -3.141293783036885543e-67
9.767249999999989996e+01 -2.852003268308241646e-67
9.788624999999990450e+01 -1.857810036606332082e-67
9.809999999999990905e+01 -8.934191070101972555e-69
9.831374999999988518e+01 2.389786956797738732e-67
9.852749999999988972e+01 5.344653661543750079e-67
9.874124999999989427e+01 8.351195587618003974e-67
9.895499999999989882e+01 1.081039053732618927e-66
9.916874999999990337e+01 1.200380602689527814e-66
9.938249999999990791e+01 1.119497781062365548e-66
9.959624999999988404e+01 7.773405923256415671e-67
9.980999999999988859e+01 1.428024651131377442e-67
1.000237499999998931e+02 -7.674021527055630276e-67
1.002374999999998977e+02 -1.873775022842208354e-66
1.004512499999999022e+02 -3.026149231609966614e-66
1.006649999999999068e+02 -4.007188379315196324e-66
1.008787499999998829e+02 -4.550898220482759219e-66
1.010924999999998875e+02 -4.378107450427642757e-66
1.013062499999998920e+02 -3.248172018166009014e-66
1.015199999999998965e+02 -1.022582508484592262e-66
1.017337499999999011e+02 2.267898835867089572e-66
1.019474999999999056e+02 6.364836103712212263e-66
1.021612499999999102e+02 1.074759836011773257e-65
1.023749999999998863e+02 1.463877117475866501e-65
1.025887499999998909e+02 1.706355679328134714e-65
1.028024999999998954e+02 1.697162701451549012e-65
1.030162499999999000e+02 1.342047904316542848e-65
1.032299999999999045e+02 5.806568143947197227e-66
1.034437499999999091e+02 -5.884336768219857464e-66
1.036574999999998852e+02 -2.085078806634257573e-65
1.038712499999998897e+02 -3.732796884111715902e-65
1.040849999999998943e+02 -5.257812765482688182e-65
1.042987499999998988e+02 -6.307316841440631253e-65
1.045124999999999034e+02 -6.490507692722303262e-65
1.047262499999999079e+02 -5.442742907972843365e-65
1.049399999999998840e+02 -2.908594499913252548e-65
1.051537499999998886e+02 1.165776841716741104e-65
1.053674999999998931e+02 6.545986735661406736e-65
1.055812499999998977e+02 1.264808307192583809e-64
1.057949999999999022e+02 1.852428774070677252e-64
1.060087499999999068e+02 2.291631693746110114e-64
1.062224999999998829e+02 2.439086203909389642e-64
1.064362499999998875e+02 2.156076141308424028e-64
1.066499999999998920e+02 1.337950726889626349e-64
1.068637499999998965e+02 -5.225935478320774194e-66
1.070774999999999011e+02 -1.951244034442851519e-64
1.072912499999999056e+02 -4.170741103423639291e-64
1.075049999999998818e+02 -6.388671594328262580e-64
1.077187499999998863e+02 -8.163720711804583409e-64
1.079324999999998909e+02 -8.979131065886267571e-64
1.081462499999998954e+02 -8.317753753257318380e-64
1.083599999999999000e+02 -5.764895413485264095e-64
1.085737499999999045e+02 -1.128654122583205097e-64
1.087874999999998806e+02 5.439862413792093816e-64
1.090012499999998852e+02 1.335049534747091768e-63
1.092149999999998897e+02 2.153022504859922494e-63
1.094287499999998943e+02 2.845948299067944117e-63
1.096424999999998988e+02 3.231065513274479401e-63
1.098562499999999034e+02 3.119847357314626821e-63
1.100699999999998795e+02 2.353315905564198811e-63
1.102837499999998840e+02 8.443310036475922680e-64
1.104974999999998886e+02 -1.379040263399016934e-63
1.107112499999998931e+02 -4.137322503941126769e-63
1.109249999999998977e+02 -7.080404831302284722e-63
1.111387499999999022e+02 -9.695249593952629637e-63
1.113524999999998784e+02 -1.134871828572215416e-62
1.115662499999998829e+02 -1.136963630935880402e-62
1.117799999999998875e+02 -9.167873913361005109e-63
1.119937499999998920e+02 -4.380043038025689090e-63
1.122074999999998965e+02 2.977618736147562724e-63
1.124212499999999011e+02 1.237698029927207613e-62
1.126349999999998772e+02 2.269997693878078611e-62
1.128487499999998818e+02 3.224957492825082872e-62
1.130624999999998863e+02 3.887915478570560986e-62
1.132762499999998909e+02 4.025659364689645901e-62
1.134899999999998954e+02 3.425829953343886639e-62
1.137037499999999000e+02 1.946094545568877737e-62
1.139174999999998761e+02 -4.332114851177501300e-63
1.141312499999998806e+02 -3.562179362637056718e-62
1.143449999999998852e+02 -7.091449871746240768e-62
1.145587499999998897e+02 -1.047122715006214985e-61
1.147724999999998943e+02 -1.298945528670221409e-61
1.149862499999998988e+02 -1.385524220124100736e-61
1.151999999999998749e+02 -1.232676280120772284e-61
1.154137499999998795e+02 -7.873797251906727347e-62
1.156274999999998840e+02 -3.547989219951552104e-63
1.158412499999998886e+02 9.821425602532456620e-62
1.160549999999998931e+02 2.158659725486069491e-61
1.162687499999998977e+02 3.319595463089760427e-61
1.164824999999999022e+02 4.233825283580156600e-61
1.166962499999998784e+02 4.639451623080305184e-61
1.169099999999998829e+02 4.284534158253502227e-61
1.171237499999998875e+02 2.979716798727528837e-61
1.173374999999998920e+02 6.564424287876680443e-62
1.175512499999998965e+02 -2.578791880784202469e-61
1.177649999999999011e+02 -6.406132653658704536e-61
1.179787499999998772e+02 -1.028291631470277717e-60
1.181924999999998818e+02 -1.347461917009209087e-60
1.184062499999998863e+02 -1.513369571720115378e-60
1.186199999999998909e+02 -1.442688005393625703e-60
1.188337499999998954e+02 -1.070219317691965703e-60
1.190474999999999000e+02 -3.676181440348467734e-61
1.192612499999998761e+02 6.388535716191201020e-61
1.194749999999998806e+02 1.855335549142046779e-60
1.196887499999998852e+02 3.116258284571878412e-60
1.199024999999998897e+02 4.192847407614922616e-60
1.201162499999998943e+02 4.816737529146271670e-60
1.203299999999998988e+02 4.719051144417591433e-60
1.205437499999998749e+02 3.682388107239972295e-60
1.207574999999998795e+02 1.599809796377401031e-60
1.209712499999998840e+02 -1.468397105273844827e-60
1.211849999999998886e+02 -5.251960700899708580e-60
1.213987499999998931e+02 -9.254746897623099801e-60
1.216124999999998977e+02 -1.277757435093327341e-59
1.218262499999998738e+02 -1.498780363172682839e-59
1.220399999999998784e+02 -1.503727229285409885e-59
1.222537499999998829e+02 -1.222123166963707682e-59
1.224674999999998875e+02 -6.160592890727671159e-60
1.226812499999998920e+02 3.020425479824477237e-60
1.228949999999998965e+02 1.455719668452035982e-59
1.231087499999998727e+02 2.698768078921944065e-59
1.233224999999998772e+02 3.821210530471792689e-59
1.235362499999998818e+02 4.569489414963244228e-59
1.237499999999998863e+02 4.681490365999985086e-59
1.239637499999998909e+02 3.934316232687108592e-59
1.241774999999998954e+02 2.199600104972997784e-59
1.243912499999998715e+02 -5.019600926665562010e-60
1.246049999999998761e+02 -3.957631735559360965e-59
1.248187499999998806e+02 -7.743179579162225373e-59
1.250324999999998852e+02 -1.123803310665424790e-58
1.252462499999998897e+02 -1.368300840113734091e-58
1.254599999999998943e+02 -1.428275124776113029e-58
1.256737499999998704e+02 -1.234710262271893998e-58
1.258874999999998749e+02 -7.456266011287592372e-59
1.261012499999998795e+02 3.746358460339864216e-60
1.263149999999998840e+02 1.056347986698241136e-58