2.024999999999579359e-01 2.503087737514810155e-96
4.162499999999482725e-01 3.063272960721328500e-96
6.299999999999528200e-01 2.825451242446963510e-96
8.437499999999573674e-01 1.180817291732371836e-96
1.057499999999947704e+00 -2.423301514050863663e-96
1.271249999999952252e+00 -8.201954993141924701e-96
1.484999999999956799e+00 -1.564796406589709729e-95
1.698749999999947136e+00 -2.311594550594773630e-95
1.912499999999951683e+00 -2.752118250484228957e-95
2.126249999999956231e+00 -2.437658115184214300e-95
2.339999999999946567e+00 -8.440820917469680747e-96
2.553749999999951115e+00 2.476985246076548842e-95
2.767499999999955662e+00 7.649546770193627058e-95
2.981249999999945999e+00 1.414667988393173258e-94
3.194999999999950546e+00 2.045367103971809408e-94
3.408749999999955094e+00 2.384910393465946359e-94
3.622499999999945430e+00 2.049107687298555977e-94
3.836249999999949978e+00 6.027677581437674589e-95
4.049999999999954525e+00 -2.307912387870747454e-94
4.263749999999944862e+00 -6.745745537535199545e-94
4.477499999999949409e+00 -1.221592659377465360e-93
4.691249999999953957e+00 -1.740180817770037035e-93
4.904999999999944293e+00 -2.001000352889520416e-93
5.118749999999948841e+00 -1.687532636951284442e-93
5.332499999999953388e+00 -4.495396574773440816e-94
5.546249999999943725e+00 1.986725784232291418e-93
5.759999999999948272e+00 5.648951923524229845e-93
5.973749999999952820e+00 1.010836076203011701e-92
6.187499999999943157e+00 1.427771834363937759e-92
6.401249999999947704e+00 1.630301792749471852e-92
6.614999999999952252e+00 1.366554114094952790e-92
6.828749999999942588e+00 3.622163564881009033e-93
7.042499999999947136e+00 -1.591757206372296716e-92
7.256249999999951683e+00 -4.506933479521646041e-92
7.469999999999942020e+00 -8.036259069839275371e-92
7.683749999999946567e+00 -1.132281407844276346e-91
7.897499999999951115e+00 -1.292382527618254416e-91
8.111249999999941451e+00 -1.089758676513121790e-91
8.324999999999945999e+00 -3.147235782285053402e-92
8.538749999999950546e+00 1.190902313145059517e-91
8.752499999999940883e+00 3.434097579031830075e-91
8.966249999999945430e+00 6.150506515712669710e-91
9.179999999999949978e+00 8.693149081647385581e-91
9.393749999999940314e+00 9.978358511880187686e-91
9.607499999999944862e+00 8.552912682202879731e-91
9.821249999999949409e+00 2.849923898935073714e-91
1.003499999999993975e+01 -8.317706671084484428e-91
1.024874999999994429e+01 -2.502844758926170839e-90
1.046249999999994884e+01 -4.537863198509813324e-90
1.067624999999993918e+01 -6.467658385136225463e-90
1.088999999999994373e+01 -7.505120843432633013e-90
1.110374999999994827e+01 -6.592967383986796441e-90
1.131749999999993861e+01 -2.586055309442778238e-90
1.153124999999994316e+01 5.397717504245591041e-90
1.174499999999994770e+01 1.745994972943575167e-89
1.195874999999993804e+01 3.230170377484344254e-89
1.217249999999994259e+01 4.664933303059778666e-89
1.238624999999994714e+01 5.496741411958566943e-89
1.259999999999993747e+01 4.977383268534761694e-89
1.281374999999994202e+01 2.288640981251796816e-89
1.302749999999994657e+01 -3.216307601410269642e-89
1.324124999999995111e+01 -1.165577250513167722e-88
1.345499999999994145e+01 -2.218984615529237033e-88
1.366874999999994600e+01 -3.261840785852067411e-88
1.388249999999995055e+01 -3.916985865117614001e-88
1.409624999999994088e+01 -3.669354910438999257e-88
1.430999999999994543e+01 -1.947914362513087719e-88
1.452374999999994998e+01 1.713519580813849726e-88
1.473749999999994031e+01 7.436629294520407004e-88
1.495124999999994486e+01 1.470794961132776693e-87
1.516499999999994941e+01 2.210281757673228460e-87
1.537874999999993975e+01 2.713100197323957536e-87
1.559249999999994429e+01 2.634442208065806493e-87
1.580624999999994884e+01 1.585511247187450223e-87
1.601999999999993918e+01 -7.626898897696814087e-88
1.623374999999994373e+01 -4.522981158750001390e-87
1.644749999999994827e+01 -9.400270690189552096e-87
1.666124999999993861e+01 -1.450600081340265335e-86
1.687499999999994316e+01 -1.824716132955822422e-86
1.708874999999994770e+01 -1.838012949743856105e-86
1.730249999999993804e+01 -1.232550287424736979e-86
1.751624999999994259e+01 2.183009393846824237e-87
1.772999999999994714e+01 2.610667995365835951e-86
1.794374999999993747e+01 5.786912197538557653e-86
1.815749999999994202e+01 9.213769313056346946e-86
1.837124999999994657e+01 1.190434979259333744e-85
1.858499999999993690e+01 1.244054104075567243e-85
1.879874999999994145e+01 9.156791015150738817e-86
1.901249999999994600e+01 5.329996824542992552e-87
1.922624999999993634e+01 -1.419414354475719908e-85
1.943999999999994088e+01 -3.425948624686010791e-85
1.965374999999994543e+01 -5.658873693369478990e-85
1.986749999999993577e+01 -7.526493135990568371e-85
2.008124999999994031e+01 -8.158702979838768260e-85
2.029499999999994486e+01 -6.509800922042042837e-85
2.050874999999993520e+01 -1.588733785194942631e-85
2.072249999999993975e+01 7.174982445039960215e-85
2.093624999999994429e+01 1.946117689545601057e-84
2.114999999999993463e+01 3.357177550906141543e-84
2.136374999999993918e+01 4.607652128382561889e-84
2.157749999999994373e+01 5.179657436825192457e-84
2.179124999999993406e+01 4.435370214750980799e-84
2.200499999999993861e+01 1.747518005810286139e-84
2.221874999999994316e+01 -3.288030430664448126e-84
2.243249999999993349e+01 -1.057379177705363190e-83
2.264624999999993804e+01 -1.921468788049645390e-83
2.285999999999994259e+01 -2.729000533530865591e-83
2.307374999999993292e+01 -3.181172090013636827e-83
2.328749999999993747e+01 -2.900307901921274723e-83
2.350124999999994202e+01 -1.501298406238786115e-83
2.371499999999993236e+01 1.288591785333240318e-83
2.392874999999993690e+01 5.469401237467793844e-83
2.414249999999994145e+01 1.059362138638364137e-82
2.435624999999993179e+01 1.562401821140706694e-82
2.456999999999993634e+01 1.889069104297329731e-82
2.478374999999994088e+01 1.822402659323441196e-82
2.499749999999993122e+01 1.133194759811090459e-82
2.521124999999993577e+01 -3.545582840890571060e-83
2.542499999999994031e+01 -2.674002913173357584e-82
2.563874999999993065e+01 -5.615039014542763345e-82
2.585249999999993520e+01 -8.638483740531195793e-82
2.606624999999993975e+01 -1.084116022808052589e-81
2.627999999999994429e+01 -1.101463000703928485e-81
2.649374999999993463e+01 -7.836960519203925806e-82
2.670749999999993918e+01 -2.190356463627577051e-83
2.692124999999994373e+01 1.220875626245164136e-81
2.713499999999993406e+01 2.853663996451123616e-81
2.734874999999993861e+01 4.607370615253309319e-81
2.756249999999994316e+01 6.009740109465876857e-81
2.777624999999993349e+01 6.408583795459411376e-81
2.798999999999993804e+01 5.065353579632629567e-81
2.820374999999994259e+01 1.332441792821337944e-81
2.841749999999993292e+01 -5.090496724109925247e-81
2.863124999999993747e+01 -1.385337244876333514e-80
2.884499999999994202e+01 -2.367167979771658839e-80
2.905874999999993236e+01 -3.216126338960162850e-80
2.927249999999993690e+01 -3.591390802801410824e-80
2.948624999999994145e+01 -3.093384255211672692e-80
2.969999999999993179e+01 -1.351490669408336468e-80
2.991374999999993634e+01 1.845065203692419253e-80
3.012749999999994088e+01 6.387899956607182742e-80
3.034124999999993122e+01 1.169383402421574340e-79
3.055499999999993577e+01 1.660274717165191311e-79
3.076874999999994031e+01 1.939146922388652143e-79
3.098249999999993065e+01 1.796722648872591943e-79
3.119624999999993520e+01 1.028629168931048567e-79
3.140999999999993975e+01 -4.998650099067972257e-80
3.162374999999993008e+01 -2.772640419342723493e-79
3.183749999999993463e+01 -5.540126811108760237e-79
3.205124999999993918e+01 -8.259481587882041265e-79
3.226499999999992951e+01 -1.008867174694787714e-78
3.247874999999993406e+01 -9.967094920691517866e-79
3.269249999999993861e+01 -6.807893562147738757e-79
3.290624999999992895e+01 1.921826390676129315e-80
3.311999999999993349e+01 1.115147444979064343e-78
3.333374999999993804e+01 2.507891247404185051e-78
3.354749999999992838e+01 3.953991372895964271e-78
3.376124999999993292e+01 5.056305438655877833e-78
3.397499999999993747e+01 5.295033259867710021e-78
3.418874999999992781e+01 4.112468151910602281e-78
3.440249999999993236e+01 1.056330000345864584e-78
3.461624999999993690e+01 -4.028124787050937915e-78
3.482999999999992724e+01 -1.078687029812750198e-77
3.504374999999993179e+01 -1.817841113526042530e-77
3.525749999999993634e+01 -2.439809728721703136e-77
3.547124999999992667e+01 -2.698429295942693568e-77
3.568499999999993122e+01 -2.317496691789883094e-77
3.589874999999993577e+01 -1.054728454903165442e-77
3.611249999999992610e+01 1.209226806156554821e-77
3.632624999999993065e+01 4.369042410462791995e-77
3.653999999999993520e+01 8.002921108904919134e-77
3.675374999999992554e+01 1.132277317265184522e-76
3.696749999999993008e+01 1.320340132395612252e-76
3.718124999999993463e+01 1.232467973045019284e-76
3.739499999999992497e+01 7.446194521946731704e-77
3.760874999999992951e+01 -2.194047994894545114e-77
3.782249999999993406e+01 -1.640543303831139525e-76
3.803624999999993861e+01 -3.359107756222234827e-76
3.824999999999994316e+01 -5.045549084374154192e-76
3.846374999999991928e+01 -6.204223714048009033e-76
3.867749999999992383e+01 -6.226445886359606191e-76
3.889124999999992838e+01 -4.503570744910234098e-76
3.910499999999993292e+01 -5.993641900289411078e-77
3.931874999999993747e+01 5.536319802415090266e-76
3.953249999999994202e+01 1.335157207125375773e-75
3.974624999999991815e+01 2.153400801241722593e-75
3.995999999999992269e+01 2.798431439019468069e-75
4.017374999999992724e+01 2.999721820983764888e-75
4.038749999999993179e+01 2.470562397464202298e-75
4.060124999999993634e+01 9.798233070946198825e-76
4.081499999999994088e+01 -1.555044307185266823e-75
4.102874999999991701e+01 -4.968920164654875659e-75
4.124249999999992156e+01 -8.768364071278478107e-75
4.145624999999992610e+01 -1.210117054501789654e-74
4.166999999999993065e+01 -1.380992745717624548e-74
4.188374999999993520e+01 -1.259702910147666289e-74
4.209749999999993975e+01 -7.311464832326808519e-75
4.231124999999991587e+01 2.660800760237476124e-75
4.252499999999992042e+01 1.695865608666746762e-74
4.273874999999992497e+01 3.385650840796089554e-74
4.295249999999992951e+01 5.005478754683023724e-74
4.316624999999993406e+01 6.079658695508868105e-74
4.337999999999993861e+01 6.043945870512053932e-74
4.359374999999991473e+01 4.355038365412534011e-74
4.380749999999991928e+01 6.482677214503739658e-75
4.402124999999992383e+01 -5.075750669235445267e-74
4.423499999999992838e+01 -1.227194304873501409e-73
4.444874999999993292e+01 -1.973114593361445229e-73
4.466249999999993747e+01 -2.558115974650329317e-73
4.487624999999991360e+01 -2.746655901210997825e-73
4.508999999999991815e+01 -2.294515282381603457e-73
4.530374999999992269e+01 -1.009899935434004943e-73
4.551749999999992724e+01 1.170058044657391846e-73
4.573124999999993179e+01 4.100454420068922341e-73
4.594499999999993634e+01 7.367305194069084011e-73
4.615874999999991246e+01 1.026841323432493444e-72
4.637249999999991701e+01 1.186148790945446233e-72
4.658624999999992156e+01 1.109859708892826227e-72
4.679999999999992610e+01 7.052175962343820825e-73
4.701374999999993065e+01 -7.838831493256596629e-74
4.722749999999993520e+01 -1.216199717312353472e-72
4.744124999999993975e+01 -2.579011510630913962e-72
4.765499999999991587e+01 -3.917789565542429570e-72
4.786874999999992042e+01 -4.872382690012101422e-72
4.808249999999992497e+01 -5.013253070178613891e-72
4.829624999999992951e+01 -3.920673269534191272e-72
4.850999999999993406e+01 -1.298154134444201349e-72
4.872374999999993861e+01 2.893490241138210864e-72
4.893749999999991473e+01 8.306600974690928937e-72
4.915124999999991928e+01 1.411715323067187470e-71
4.936499999999992383e+01 1.901664065266192928e-71
4.957874999999992838e+01 2.132467222333616476e-71
4.979249999999993292e+01 1.924849239170612357e-71
5.000624999999993747e+01 1.128992576047328147e-71
5.021999999999991360e+01 -3.237164749265831865e-72
5.043374999999991815e+01 -2.366063832746142283e-71
5.064749999999992269e+01 -4.750093563426850839e-71
5.086124999999992724e+01 -7.027690185647666052e-71
5.107499999999993179e+01 -8.573076033343341230e-71
5.128874999999993634e+01 -8.660409686616596766e-71
5.150249999999991246e+01 -6.601675294568520117e-71
5.171624999999991701e+01 -1.937194722353245284e-71
5.192999999999992156e+01 5.345548493727660117e-71
5.214374999999992610e+01 1.460701684445685786e-70
5.235749999999993065e+01 2.442221205451424620e-70
5.257124999999993520e+01 3.258402393268470377e-70
5.278499999999991132e+01 3.630346639032996481e-70
5.299874999999991587e+01 3.264456602270675184e-70
5.321249999999992042e+01 1.919005704824235753e-70
5.342624999999992497e+01 -5.124963158987103824e-71
5.363999999999992951e+01 -3.914369239255917198e-70
5.385374999999993406e+01 -7.878216326109820185e-70
5.406749999999991019e+01 -1.167348679040512977e-69
5.428124999999991473e+01 -1.428463155684436542e-69
5.449499999999991928e+01 -1.453516276779977708e-69
5.470874999999992383e+01 -1.130648401967780769e-69
5.492249999999992838e+01 -3.839513908454073857e-70
5.513624999999993292e+01 7.918499394688791099e-70
5.534999999999990905e+01 2.298723979332264498e-69
5.556374999999991360e+01 3.913576087970094034e-69
5.577749999999991815e+01 5.287569421973914980e-69
5.599124999999992269e+01 5.975995660755948344e-69
5.620499999999992724e+01 5.504863889563964969e-69
5.641874999999993179e+01 3.474110721676931148e-69
5.663249999999990791e+01 -3.116628420600980294e-70
5.684624999999991246e+01 -5.704758463731225574e-69
5.705999999999991701e+01 -1.209870295991512846e-68
5.727374999999992156e+01 -1.837364258843940078e-68
5.748749999999992610e+01 -2.294310275788616825e-68
5.770124999999993065e+01 -2.393542041844714307e-68
5.791499999999990678e+01 -1.952495924671491424e-68
5.812874999999991132e+01 -8.398305207512374357e-69
5.834249999999991587e+01 9.698856708122029313e-69
5.855624999999992042e+01 3.343215188576293907e-68
5.876999999999992497e+01 5.950319237405347389e-68
5.898374999999992951e+01 8.258826516613834759e-68
5.919749999999990564e+01 9.574453918952854377e-68
5.941124999999991019e+01 9.139075271790212735e-68
5.962499999999991473e+01 6.287605309016399021e-68
5.983874999999991928e+01 6.512796388581570246e-69
6.005249999999992383e+01 -7.621924980916169195e-68
6.026624999999992838e+01 -1.767609108622142881e-67
6.047999999999990450e+01 -2.784503556513969298e-67
6.069374999999990905e+01 -3.570303946113531429e-67
6.090749999999991360e+01 -3.832357921319705925e-67
6.112124999999991815e+01 -3.277419693661065561e-67
6.133499999999992269e+01 -1.683009068367943911e-67
6.154874999999992724e+01 1.017236073915358174e-67
6.176249999999993179e+01 4.648995325815504109e-67
6.197624999999990791e+01 8.734575127958713487e-67
6.218999999999991246e+01 1.247706263747452313e-66
6.240374999999991701e+01 1.481573349931324149e-66
6.261749999999992156e+01 1.457029540578482446e-66
6.283124999999992610e+01 1.067738609992984569e-66
6.304499999999993065e+01 2.501524948079281509e-67
6.325874999999990678e+01 -9.823404125417500675e-67
6.347249999999991132e+01 -2.509276370690878672e-66
6.368624999999991587e+01 -4.086141581977990070e-66
6.389999999999992042e+01 -5.350458977562156585e-66
6.411374999999992497e+01 -5.859452602750781117e-66
6.432749999999992951e+01 -5.163716667214448340e-66
6.454124999999990564e+01 -2.914354204528722053e-66
6.475499999999991019e+01 1.008306845773484068e-66
6.496874999999991473e+01 6.366781798750572190e-66
6.518249999999991928e+01 1.247110789975438193e-65
6.539624999999992383e+01 1.815363407007603947e-65
6.560999999999992838e+01 2.185025884236364726e-65
6.582374999999990450e+01 2.181379152060308522e-65
6.603749999999990905e+01 1.646350873691051755e-65
6.625124999999991360e+01 4.843098034492747877e-66
6.646499999999991815e+01 -1.287946908876492274e-65
6.667874999999992269e+01 -3.497530942140668340e-65
6.689249999999992724e+01 -5.791561941508555772e-65
6.710624999999990337e+01 -7.647303012719081245e-65
6.731999999999990791e+01 -8.428266711510431363e-65
6.753374999999991246e+01 -7.491939001491029720e-65
6.774749999999991701e+01 -4.344422568407639971e-65
6.796124999999992156e+01 1.176255281379558498e-65
6.817499999999992610e+01 8.721184045642765572e-65
6.838874999999990223e+01 1.730178377855621007e-64
6.860249999999990678e+01 2.526387783344547889e-64
6.881624999999991132e+01 3.041403360173586029e-64
6.902999999999991587e+01 3.033072642145423368e-64
6.924374999999992042e+01 2.286095204414609819e-64
6.945749999999992497e+01 6.757524054387573417e-65
6.967124999999990109e+01 -1.764092616238185919e-64
6.988499999999990564e+01 -4.783636786983711156e-64
7.009874999999991019e+01 -7.888888438983459857e-64
7.031249999999991473e+01 -1.036147028611809443e-63
7.052624999999991928e+01 -1.134142116236237880e-63
7.073999999999992383e+01 -9.978624910805554476e-64
7.095374999999989996e+01 -5.643963674720869191e-64
7.116749999999990450e+01 1.827005444344307604e-64
7.138124999999990905e+01 1.190414980786846129e-63
7.159499999999991360e+01 2.320845894036697164e-63
7.180874999999991815e+01 3.350183355228310715e-63
7.202249999999992269e+01 3.988203900634196165e-63
7.223624999999989882e+01 3.921849291057190312e-63
7.244999999999990337e+01 2.882012795038874057e-63
7.266374999999990791e+01 7.266334488992542115e-64
7.287749999999991246e+01 -2.473565861640582463e-63
7.309124999999991701e+01 -6.366506728858955943e-63
7.330499999999992156e+01 -1.029093460910307138e-62
7.351874999999989768e+01 -1.331246320765179502e-62
7.373249999999990223e+01 -1.434030003969652066e-62
7.394624999999990678e+01 -1.232855827861062645e-62
7.415999999999991132e+01 -6.547053922560991596e-63
7.437374999999991587e+01 3.116400589191551279e-63
7.458749999999992042e+01 1.588292758701086050e-62
7.480124999999992497e+01 2.991644346175725750e-62
7.501499999999990109e+01 4.234698059821312730e-62
7.522874999999990564e+01 4.955272602996514370e-62
7.544249999999991019e+01 4.773474114392671370e-62
7.565624999999991473e+01 3.376095000094188897e-62
7.586999999999991928e+01 6.181772303790907649e-63
7.608374999999992383e+01 -3.375988624335464523e-62
7.629749999999989996e+01 -8.136955316849807605e-62
7.651124999999990450e+01 -1.282736151674482501e-61
7.672499999999990905e+01 -1.629853244379047941e-61
7.693874999999991360e+01 -1.724376756742480988e-61
7.715249999999991815e+01 -1.444916026563580573e-61
7.736624999999992269e+01 -7.119733230416076156e-62
7.757999999999989882e+01 4.767958058524089963e-62
7.779374999999990337e+01 2.016078543877944462e-61
7.800749999999990791e+01 3.676274881499050525e-61
7.822124999999991246e+01 5.110052014375553217e-61
7.843499999999991701e+01 5.889436479732985398e-61
7.864874999999992156e+01 5.576339201904394662e-61
7.886249999999989768e+01 3.822560834958975530e-61
7.907624999999990223e+01 4.868116764676214197e-62
7.928999999999990678e+01 -4.252503437628708324e-61
7.950374999999991132e+01 -9.817054672895505450e-61
7.971749999999991587e+01 -1.521226216113621769e-60
7.993124999999992042e+01 -1.910298223626864020e-60
8.014499999999989654e+01 -1.999819937001274664e-60
8.035874999999990109e+01 -1.654241837605427334e-60
8.057249999999990564e+01 -7.885455858204950915e-61
8.078624999999991019e+01 5.926733248911699780e-61
8.099999999999991473e+01 2.362399075554087839e-60
8.121374999999991928e+01 4.254706063304983680e-60
8.142749999999989541e+01 5.874552489545720324e-60
8.164124999999989996e+01 6.741387318574088716e-60
8.185499999999990450e+01 6.369002830116594923e-60
8.206874999999990905e+01 4.376514968333276088e-60
8.228249999999991360e+01 6.162120389440020496e-61
8.249624999999991815e+01 -4.705175077731143790e-60
8.270999999999989427e+01 -1.094234089507090974e-59
8.292374999999989882e+01 -1.699760019812698560e-59
8.313749999999990337e+01 -2.140650074092965766e-59
8.335124999999990791e+01 -2.253962372968831315e-59
8.356499999999991246e+01 -1.891666388481225228e-59
8.377874999999991701e+01 -9.601593737426146688e-60
8.399249999999989313e+01 5.382277926016435405e-60
8.420624999999989768e+01 2.470532126603923153e-59
8.441999999999990223e+01 4.555689690001554252e-59
8.463374999999990678e+01 6.374541875052948270e-59
8.484749999999991132e+01 7.414979115231961555e-59
8.506124999999991587e+01 7.154626186277996296e-59
8.527499999999989200e+01 5.175787421208359670e-59
8.548874999999989654e+01 1.298144739960998424e-59
8.570249999999990109e+01 -4.294511639982421428e-59
8.591624999999990564e+01 -1.096434502140322947e-58
8.612999999999991019e+01 -1.759979540606793574e-58
8.634374999999991473e+01 -2.269564706586903210e-58
8.655749999999989086e+01 -2.455028097083237902e-58
8.677124999999989541e+01 -2.157734604171576064e-58
8.698499999999989996e+01 -1.270240721693211071e-58
8.719874999999990450e+01 2.214279945588107047e-59
8.741249999999990905e+01 2.201421459338864096e-58
8.762624999999991360e+01 4.403830495401461273e-58
8.783999999999991815e+01 6.418738067276986104e-58
8.805374999999989427e+01 7.732410066360946323e-58
8.826749999999989882e+01 7.804621331962732094e-58
8.848124999999990337e+01 6.178912089459162525e-58
8.869499999999990791e+01 2.612821539640234622e-58
8.890874999999991246e+01 -2.793742927282544521e-58
8.912249999999991701e+01 -9.500953151794968798e-58
8.933624999999989313e+01 -1.649443533088253473e-57
8.954999999999989768e+01 -2.234285274950821864e-57
8.976374999999990223e+01 -2.536674784140005000e-57
8.997749999999990678e+01 -2.391981483665328770e-57
9.019124999999991132e+01 -1.675957871858207223e-57
9.040499999999991587e+01 -3.457113074632817998e-58
9.061874999999989200e+01 1.523014781520181512e-57
9.083249999999989654e+01 3.711609261638133222e-57
9.104624999999990109e+01 5.857092623432224174e-57
9.125999999999990564e+01 7.481358138098347635e-57
9.147374999999991019e+01 8.055201523303763071e-57
9.168749999999991473e+01 7.095024696059488688e-57
9.190124999999989086e+01 4.282344732409758792e-57
9.211499999999989541e+01 -4.119627645687259323e-58
9.232874999999989996e+01 -6.623787847355509054e-57
9.254249999999990450e+01 -1.354134418092711724e-56
9.275624999999990905e+01 -1.992826733098844654e-56
9.296999999999991360e+01 -2.424506934314252450e-56
9.318374999999988972e+01 -2.487563394524026124e-56
9.339749999999989427e+01 -2.044524951303817554e-56
9.361124999999989882e+01 -1.019276516193335640e-56
9.382499999999990337e+01 5.664303947484578987e-57
9.403874999999990791e+01 2.565140769694383136e-56
9.425249999999991246e+01 4.693265649905161211e-56
9.446624999999988859e+01 6.545955687705172580e-56
9.467999999999989313e+01 7.642402929220816658e-56
9.489374999999989768e+01 7.501945702856439545e-56
9.510749999999990223e+01 5.744992689707873730e-56
9.532124999999990678e+01 2.205635978106313970e-56
9.553499999999991132e+01 -2.963861894048698913e-56
9.574874999999988745e+01 -9.221196493932802522e-56
9.596249999999989200e+01 -1.562030100321451211e-55
9.617624999999989654e+01 -2.087735714103308375e-55
9.638999999999990109e+01 -2.352840143338683456e-55
9.660374999999990564e+01 -2.217511303635646300e-55
9.681749999999991019e+01 -1.579595174252220230e-55
9.703124999999988631e+01 -4.078986036365634184e-56
9.724499999999989086e+01 1.228561118357198978e-55
9.745874999999989541e+01 3.142673637908220226e-55
9.767249999999989996e+01 5.030024861156638122e-55
9.788624999999990450e+01 6.494116515978462859e-55
9.809999999999990905e+01 7.098553652209831668e-55
9.831374999999988518e+01 6.443984057024669674e-55
9.852749999999988972e+01 4.261786973459991534e-55
9.874124999999989427e+01 5.105570844388450172e-56
9.895499999999989882e+01 -4.543515561904857367e-55
9.916874999999990337e+01 -1.028388115654495917e-54
9.938249999999990791e+01 -1.575901273181587819e-54
9.959624999999988404e+01 -1.977098283059196869e-54
9.980999999999988859e+01 -2.104202022647410125e-54
1.000237499999998931e+02 -1.844941466649199583e-54
1.002374999999998977e+02 -1.130222145715604266e-54
1.004512499999999022e+02 3.835188431050916937e-56
1.006649999999999068e+02 1.566742452780047758e-54
1.008787499999998829e+02 3.258732843728000406e-54
1.010924999999998875e+02 4.823860535336852634e-54
1.013062499999998920e+02 5.906881170353136251e-54
1.015199999999998965e+02 6.139442189346559815e-54
1.017337499999999011e+02 5.210357934919930437e-54
1.019474999999999056e+02 2.946009142340989744e-54
1.021612499999999102e+02 -6.122538314518622693e-55
1.023749999999998863e+02 -5.150235292359911148e-54
1.025887499999998909e+02 -1.006019041726694164e-53
1.028024999999998954e+02 -1.447283013585448633e-53
1.030162499999999000e+02 -1.735168995788939101e-53
1.032299999999999045e+02 -1.764990374763840578e-53
1.034437499999999091e+02 -1.451688262208523511e-53
1.036574999999998852e+02 -7.528571580012130445e-54
1.038712499999998897e+02 3.097763647538509558e-54
1.040849999999998943e+02 1.635198622735424531e-53
1.042987499999998988e+02 3.039229900995203294e-53
1.045124999999999034e+02 4.266108662976822211e-53
1.047262499999999079e+02 5.017889604763460571e-53
1.049399999999998840e+02 5.001145785336027365e-53
1.051537499999998886e+02 3.986846839421227154e-53
1.053674999999998931e+02 1.875407798086268891e-53
1.055812499999998977e+02 -1.244533855078034739e-53
1.057949999999999022e+02 -5.057230754326287102e-53
1.060087499999999068e+02 -9.014546685740088691e-53
1.062224999999998829e+02 -1.237539154594791890e-52
1.064362499999998875e+02 -1.429536149697303293e-52
1.066499999999998920e+02 -1.396369024898421594e-52
1.068637499999998965e+02 -1.077431421643803282e-52
1.070774999999999011e+02 -4.507124425814104215e-53
1.072912499999999056e+02 4.513659110636908788e-53
1.075049999999998818e+02 1.532229993247953453e-52
1.077187499999998863e+02 2.631300564645587747e-52
1.079324999999998909e+02 3.536892274975442305e-52
1.081462499999998954e+02 4.013068150897542435e-52
1.083599999999999000e+02 3.839226256481336672e-52
1.085737499999999045e+02 2.858300865291654850e-52
1.087874999999998806e+02 1.026534845341642419e-52
1.090012499999998852e+02 -1.544601448627260801e-52
1.092149999999998897e+02 -4.564971557576987162e-52
1.094287499999998943e+02 -7.570878500030325168e-52
1.096424999999998988e+02 -9.966046338733147644e-52
1.098562499999999034e+02 -1.110081900764474887e-51
1.100699999999998795e+02 -1.038500495162278523e-51
1.102837499999998840e+02 -7.421779448280911715e-52
1.104974999999998886e+02 -2.142212968097313984e-52
1.107112499999998931e+02 5.086062388468816796e-52
1.109249999999998977e+02 1.340507953255574523e-51
1.111387499999999022e+02 2.149419229675985320e-51
1.113524999999998784e+02 2.769720279232220408e-51
1.115662499999998829e+02 3.025246804587541636e-51
1.117799999999998875e+02 2.761007135299784473e-51
1.119937499999998920e+02 1.879829320543886330e-51
1.122074999999998965e+02 3.780990268108359103e-52
1.124212499999999011e+02 -1.626745340010699043e-51
1.126349999999998772e+02 -3.884759700000558187e-51
1.128487499999998818e+02 -6.024933016492711496e-51
1.130624999999998863e+02 -7.593785730207803815e-51
1.132762499999998909e+02 -8.121231049828473884e-51
1.134899999999998954e+02 -7.208430952978816419e-51
1.137037499999999000e+02 -4.626525989490237187e-51
1.139174999999998761e+02 -4.098105268630946371e-52
1.141312499999998806e+02 5.076627582312191444e-51
1.143449999999998852e+02 1.111537916483263455e-50
1.145587499999998897e+02 1.667855782889586268e-50
1.147724999999998943e+02 2.054260377952816172e-50
1.149862499999998988e+02 2.147390319691253029e-50
1.151999999999998749e+02 1.846847501068173329e-50
1.154137499999998795e+02 1.101359288945698249e-50
1.156274999999998840e+02 -6.741201512262882801e-52
1.158412499999998886e+02 -1.548764557889053751e-50
1.160549999999998931e+02 -3.139880927358908569e-50
1.162687499999998977e+02 -4.560015093346851963e-50
1.164824999999999022e+02 -5.483946740470419499e-50
1.166962499999998784e+02 -5.593462020463112589e-50
1.169099999999998829e+02 -4.641719895952807682e-50
1.171237499999998875e+02 -2.521399811552930564e-50
1.173374999999998920e+02 6.757338583064798461e-51
1.175512499999998965e+02 4.621933423633944049e-50
1.177649999999999011e+02 8.752730394093842207e-50
1.179787499999998772e+02 1.231244187083932398e-49
1.181924999999998818e+02 1.444966754014512248e-49
1.184062499999998863e+02 1.435771398733029680e-49
1.186199999999998909e+02 1.144466235934054013e-49
1.188337499999998954e+02 5.507795973346777910e-50
1.190474999999999000e+02 -3.120641186821511721e-50
1.192612499999998761e+02 -1.349273637356851850e-49
1.194749999999998806e+02 -2.406273788823786630e-49
1.196887499999998852e+02 -3.282664898837340746e-49
1.199024999999998897e+02 -3.758921174971371900e-49
1.201162499999998943e+02 -3.634045040728575464e-49
1.203299999999998988e+02 -2.769766726153249764e-49
1.205437499999998749e+02 -1.134409443866544064e-49
1.207574999999998795e+02 1.162242246276594947e-49
1.209712499999998840e+02 3.852295982812559603e-49
1.211849999999998886e+02 6.519458369131330871e-49
1.213987499999998931e+02 8.640248656113954126e-49
1.216124999999998977e+02 9.657093688681381851e-49
1.218262499999998738e+02 9.077554833940038757e-49
1.220399999999998784e+02 6.587311965042628925e-49
1.222537499999998829e+02 2.158565259301391923e-49
1.224674999999998875e+02 -3.868446659821145703e-49
1.226812499999998920e+02 -1.075377193041445250e-48
1.228949999999998965e+02 -1.739523016856672064e-48
1.231087499999998727e+02 -2.244600903428950290e-48
1.233224999999998772e+02 -2.451063487597124046e-48
1.235362499999998818e+02 -2.240190464175538158e-48
1.237499999999998863e+02 -1.542497943325312432e-48
1.239637499999998909e+02 -3.640744512424044514e-49
1.241774999999998954e+02 1.194792773066182455e-48
1.243912499999998715e+02 2.934311176876591002e-48
1.246049999999998761e+02 4.567685575237516522e-48
1.248187499999998806e+02 5.753640053538037118e-48
1.250324999999998852e+02 6.147873278215042924e-48
1.252462499999998897e+02 5.468426585985356429e-48
1.254599999999998943e+02 3.565967854866679399e-48
1.256737499999998704e+02 4.867345182732349807e-49
1.258874999999998749e+02 -3.485850920638485732e-48
1.261012499999998795e+02 -7.824355969155854235e-48
1.263149999999998840e+02 -1.179551760076800837e-47
1.265287499999998886e+02 -1.454759925131665450e-47
1.267424999999998931e+02 -1.524272297992823199e-47
1.269562499999998693e+02 -1.322028544610847190e-47