2.024999999999579359e-01 2.183460445222995306e-142
4.162499999999482725e-01 2.476804807562482509e-143
6.299999999999528200e-01 -4.187526514065077827e-142
8.437499999999573674e-01 -1.190879016636545939e-141
1.057499999999947704e+00 -2.298553536701530483e-141
1.271249999999952252e+00 -3.586979885598224257e-141
1.484999999999956799e+00 -4.623528300888546551e-141
1.698749999999947136e+00 -4.583149177485192796e-141
1.912499999999951683e+00 -2.194892795155764529e-141
2.126249999999956231e+00 4.151060441794202450e-141
2.339999999999946567e+00 1.599974586769377814e-140
2.553749999999951115e+00 3.398350919946685793e-140
2.767499999999955662e+00 5.643116425917372628e-140
2.981249999999945999e+00 7.749094997008875934e-140
3.194999999999950546e+00 8.513212487110022547e-140
3.408749999999955094e+00 5.987427921152439699e-140
3.622499999999945430e+00 -2.428339085283929683e-140
3.836249999999949978e+00 -1.946476116701037675e-139
4.049999999999954525e+00 -4.679583466552036270e-139
4.263749999999944862e+00 -8.300365051545530682e-139
4.477499999999949409e+00 -1.207207207298007975e-138
4.691249999999953957e+00 -1.434067880831520508e-138
4.904999999999944293e+00 -1.229141365369357307e-138
5.118749999999948841e+00 -1.991710480597231374e-139
5.332499999999953388e+00 2.097693348964763525e-138
5.546249999999943725e+00 5.994116690844472120e-138
5.759999999999948272e+00 1.143124434481680367e-137
5.973749999999952820e+00 1.754846281966184137e-137
6.187499999999943157e+00 2.219966527628560899e-137
6.401249999999947704e+00 2.154590480888214793e-137
6.614999999999952252e+00 1.000309848668463726e-137
6.828749999999942588e+00 -1.903971439477032476e-137
7.042499999999947136e+00 -7.122780794890149555e-137
7.256249999999951683e+00 -1.475254474671028833e-136
7.469999999999942020e+00 -2.386574235380075404e-136
7.683749999999946567e+00 -3.183265636104197030e-136
7.897499999999951115e+00 -3.370695301613342584e-136
8.111249999999941451e+00 -2.203124870825138761e-136
8.324999999999945999e+00 1.239700559903581245e-136
8.538749999999950546e+00 7.813190323451845542e-136
8.752499999999940883e+00 1.784401559297547361e-135
8.966249999999945430e+00 3.041891244332024776e-135
9.179999999999949978e+00 4.249388894417962961e-135
9.393749999999940314e+00 4.804529681338731778e-135
9.607499999999944862e+00 3.769586533757552166e-135
9.821249999999949409e+00 -5.194306516120324544e-137
1.003499999999993975e+01 -7.841677557997269713e-135
1.024874999999994429e+01 -2.021686545934739660e-134
1.046249999999994884e+01 -3.637099743194651452e-134
1.067624999999993918e+01 -5.297611150854404354e-134
1.088999999999994373e+01 -6.309875533467610619e-134
1.110374999999994827e+01 -5.563016210484516567e-134
1.131749999999993861e+01 -1.600412786400267413e-134
1.153124999999994316e+01 7.082528833352235182e-134
1.174499999999994770e+01 2.142128150009853069e-133
1.195874999999993804e+01 4.080178119480681442e-133
1.217249999999994259e+01 6.179027486965515189e-133
1.238624999999994714e+01 7.684739112215962829e-133
1.259999999999993747e+01 7.357546761662693525e-133
1.281374999999994202e+01 3.534887803293909358e-133
1.302749999999994657e+01 -5.560425121725085610e-133
1.324124999999995111e+01 -2.116388069828440203e-132
1.345499999999994145e+01 -4.291419014229080098e-132
1.366874999999994600e+01 -6.747320836824668633e-132
1.388249999999995055e+01 -8.710497709742339229e-132
1.409624999999994088e+01 -8.878426182578557282e-132
1.430999999999994543e+01 -5.471460986988272733e-132
1.452374999999994998e+01 3.464239478881519072e-132
1.473749999999994031e+01 1.939680067011250167e-131
1.495124999999994486e+01 4.223920411742734661e-131
1.516499999999994941e+01 6.894247341031201536e-131
1.537874999999993975e+01 9.203176473847078500e-131
1.559249999999994429e+01 9.864508922223349576e-131
1.580624999999994884e+01 7.093170324753459534e-131
1.601999999999993918e+01 -1.112638848651986566e-131
1.623374999999994373e+01 -1.634583310932258621e-130
1.644749999999994827e+01 -3.877201683846395761e-130
1.666124999999993861e+01 -6.578688207174621138e-130
1.687499999999994316e+01 -9.061150055800768122e-130
1.708874999999994770e+01 -1.013424913989238371e-129
1.730249999999993804e+01 -8.123901931205256779e-130
1.751624999999994259e+01 -1.120387328056049328e-130
1.772999999999994714e+01 1.246467105974846237e-129
1.794374999999993747e+01 3.299071750480432178e-129
1.815749999999994202e+01 5.839329128456276646e-129
1.837124999999994657e+01 8.293279144886283752e-129
1.858499999999993690e+01 9.633405757625714800e-129
1.879874999999994145e+01 8.398130589861285264e-129
1.901249999999994600e+01 2.896657157875119327e-129
1.922624999999993634e+01 -8.328187407398958343e-129
1.943999999999994088e+01 -2.574796831733168068e-128
1.965374999999994543e+01 -4.786349256588557595e-128
1.986749999999993577e+01 -7.017747427434645347e-128
2.008124999999994031e+01 -8.448411479987016252e-128
2.029499999999994486e+01 -7.899657918913565754e-128
2.050874999999993520e+01 -3.992148188836292079e-128
2.072249999999993975e+01 4.498702877882001367e-128
2.093624999999994429e+01 1.806987475279998729e-127
2.114999999999993463e+01 3.574774004245208227e-127
2.136374999999993918e+01 5.432132975457153056e-127
2.157749999999994373e+01 6.781617122485851640e-127
2.179124999999993406e+01 6.757892162801671242e-127
2.200499999999993861e+01 4.338838627033324558e-127
2.221874999999994316e+01 -1.406721745637848345e-127
2.243249999999993349e+01 -1.092614276156089697e-126
2.264624999999993804e+01 -2.368277642571394022e-126
2.285999999999994259e+01 -3.765096311909505705e-126
2.307374999999993292e+01 -4.897994402081659466e-126
2.328749999999993747e+01 -5.205657222764539256e-126
2.350124999999994202e+01 -4.020685924446176244e-126
2.371499999999993236e+01 -7.206860346161782940e-127
2.392874999999993690e+01 5.040123229612606452e-126
2.414249999999994145e+01 1.304731678140540594e-125
2.435624999999993179e+01 2.225413782371333044e-125
2.456999999999993634e+01 3.061700803416113074e-125
2.478374999999994088e+01 3.515163540724397422e-125
2.499749999999993122e+01 3.230766687752924435e-125
2.521124999999993577e+01 1.870036634243699892e-125
2.542499999999994031e+01 -7.867828503797295255e-126
2.563874999999993065e+01 -4.729735294711328845e-125
2.585249999999993520e+01 -9.631578653788818856e-125
2.606624999999993975e+01 -1.482029577602768067e-124
2.627999999999994429e+01 -1.933793308720338380e-124
2.649374999999993463e+01 -2.208201758139295568e-124
2.670749999999993918e+01 -2.197814638377055883e-124
2.692124999999994373e+01 -1.808021317846161789e-124
2.713499999999993406e+01 -9.465335894341103909e-125
2.734874999999993861e+01 5.176950876925877990e-125
2.756249999999994316e+01 2.822617539114537738e-124
2.777624999999993349e+01 6.378656048021140363e-124
2.798999999999993804e+01 1.176572146609183365e-123
2.820374999999994259e+01 1.955962696888475838e-123
2.841749999999993292e+01 2.987043130805083828e-123
2.863124999999993747e+01 4.151037905664003024e-123
2.884499999999994202e+01 5.082791282412090120e-123
2.905874999999993236e+01 5.046998876436895443e-123
2.927249999999993690e+01 2.866056280284044687e-123
2.948624999999994145e+01 -3.005360380217681885e-123
2.969999999999993179e+01 -1.413768001689102461e-122
2.991374999999993634e+01 -3.140061921403997470e-122
3.012749999999994088e+01 -5.380527618599315591e-122
3.034124999999993122e+01 -7.701770588499283200e-122
3.055499999999993577e+01 -9.189719180375523461e-122
3.076874999999994031e+01 -8.373717515011155216e-122
3.098249999999993065e+01 -3.321205543583271241e-122
3.119624999999993520e+01 7.978174112930060494e-122
3.140999999999993975e+01 2.683604052706934338e-121
3.162374999999993008e+01 5.266692479955172507e-121
3.183749999999993463e+01 8.148942185225584224e-121
3.205124999999993918e+01 1.044796616568983253e-120
3.226499999999992951e+01 1.072158192465519559e-120
3.247874999999993406e+01 7.052198817108792261e-121
3.269249999999993861e+01 -2.604972561443000609e-121
3.290624999999992895e+01 -1.972366037714639580e-120
3.311999999999993349e+01 -4.413865264644486682e-120
3.333374999999993804e+01 -7.271813020799502648e-120
3.354749999999992838e+01 -9.807831461274555645e-120
3.376124999999993292e+01 -1.078733662658880426e-119
3.397499999999993747e+01 -8.540426991165981043e-120
3.418874999999992781e+01 -1.238411507218628909e-120
3.440249999999993236e+01 1.254546091704436940e-119
3.461624999999993690e+01 3.297570911149292751e-119
3.482999999999992724e+01 5.788012810802869015e-119
3.504374999999993179e+01 8.169362199243406633e-119
3.525749999999993634e+01 9.482716295611515220e-119
3.547124999999992667e+01 8.402597552434228126e-119
3.568499999999993122e+01 3.435024290900234356e-119
3.589874999999993577e+01 -6.669931468940527030e-119
3.611249999999992610e+01 -2.227744254017378975e-118
3.632624999999993065e+01 -4.205795544429235689e-118
3.653999999999993520e+01 -6.217221650062325793e-118
3.675374999999992554e+01 -7.574004605488724909e-118
3.696749999999993008e+01 -7.299448355401023858e-118
3.718124999999993463e+01 -4.257532561000855257e-118
3.739499999999992497e+01 2.565462133788876603e-118
3.760874999999992951e+01 1.361450391223780261e-117
3.782249999999993406e+01 2.819083586395085085e-117
3.803624999999993861e+01 4.385606875429705526e-117
3.824999999999994316e+01 5.600769856810194474e-117
3.846374999999991928e+01 5.789667596582071063e-117
3.867749999999992383e+01 4.139767778670422022e-117
3.889124999999992838e+01 -1.196198193447145686e-118
3.910499999999993292e+01 -7.424229987739701897e-117
3.931874999999993747e+01 -1.748786649992543407e-116
3.953249999999994202e+01 -2.888716897341811561e-116
3.974624999999991815e+01 -3.873904589120003564e-116
3.995999999999992269e+01 -4.264429352986746175e-116
4.017374999999992724e+01 -3.510117399426439545e-116
4.038749999999993179e+01 -1.057523159823420054e-116
4.060124999999993634e+01 3.468016762116216273e-116
4.081499999999994088e+01 1.001437767845110475e-115
4.102874999999991701e+01 1.782591424985370379e-115
4.124249999999992156e+01 2.520994904086218160e-115
4.145624999999992610e+01 2.945272244050425322e-115
4.166999999999993065e+01 2.701332965673158033e-115
4.188374999999993520e+01 1.411916762696982551e-115
4.209749999999993975e+01 -1.216228719540826506e-115
4.231124999999991587e+01 -5.240587485529778961e-115
4.252499999999992042e+01 -1.030607453344779591e-114
4.273874999999992497e+01 -1.548374820760698160e-114
4.295249999999992951e+01 -1.918728333534885207e-114
4.316624999999993406e+01 -1.924529196174966478e-114
4.337999999999993861e+01 -1.320868108344822196e-114
4.359374999999991473e+01 1.051278204235661102e-115
4.380749999999991928e+01 2.445499559571650627e-114
4.402124999999992383e+01 5.563025741449938402e-114
4.423499999999992838e+01 8.984782921932784942e-114
4.444874999999993292e+01 1.183262979239348316e-113
4.466249999999993747e+01 1.283635266706398885e-113
4.487624999999991360e+01 1.047851698083276538e-113
4.508999999999991815e+01 3.310086624490089135e-114
4.530374999999992269e+01 -9.552683065053214354e-114
4.551749999999992724e+01 -2.778950370192176487e-113
4.573124999999993179e+01 -4.920409159281207572e-113
4.594499999999993634e+01 -6.920667586442269859e-113
4.615874999999991246e+01 -8.070924173098149220e-113
4.637249999999991701e+01 -7.472670021929474597e-113
4.658624999999992156e+01 -4.194341822525023632e-113
4.679999999999992610e+01 2.463026828325662422e-113
4.701374999999993065e+01 1.260441331155467708e-112
4.722749999999993520e+01 2.533458377727316243e-112
4.744124999999993975e+01 3.840338767991319694e-112
4.765499999999991587e+01 4.804304794938483066e-112
4.786874999999992042e+01 4.916647848429133586e-112
4.808249999999992497e+01 3.609034684164593239e-112
4.829624999999992951e+01 3.888232835337663735e-113
4.850999999999993406e+01 -4.964699422280574203e-112
4.872374999999993861e+01 -1.216498184396227587e-111
4.893749999999991473e+01 -2.019082117757180185e-111
4.915124999999991928e+01 -2.714040998494380732e-111
4.936499999999992383e+01 -3.026071564848902299e-111
4.957874999999992838e+01 -2.625068030856080451e-111
4.979249999999993292e+01 -1.191450744876776387e-111
5.000624999999993747e+01 1.481729466296251601e-111
5.021999999999991360e+01 5.358084017134351793e-111
5.043374999999991815e+01 1.002025659840594217e-110
5.064749999999992269e+01 1.456223861642772397e-110
5.086124999999992724e+01 1.756184408982372862e-110
5.107499999999993179e+01 1.718997803790263665e-110
5.128874999999993634e+01 1.150676223677312703e-110
5.150249999999991246e+01 -1.030802440981060330e-111
5.171624999999991701e+01 -2.087286817389352606e-110
5.192999999999992156e+01 -4.658537393294806482e-110
5.214374999999992610e+01 -7.413996967581400861e-110
5.235749999999993065e+01 -9.654342407436186725e-110
5.257124999999993520e+01 -1.041185090311948945e-109
5.278499999999991132e+01 -8.574214347963379062e-110
5.299874999999991587e+01 -3.124663800183360662e-110
5.321249999999992042e+01 6.502981832277921293e-110
5.342624999999992497e+01 1.999028962989028081e-109
5.363999999999992951e+01 3.570158474498438410e-109
5.385374999999993406e+01 5.038017240456913830e-109
5.406749999999991019e+01 5.913834510666435453e-109
5.428124999999991473e+01 5.591739164207194382e-109
5.449499999999991928e+01 3.456023001021040026e-109
5.470874999999992383e+01 -9.455663924476252450e-110
5.492249999999992838e+01 -7.674185262750054278e-109
5.513624999999993292e+01 -1.615225775372570033e-108
5.534999999999990905e+01 -2.495611081139984262e-108
5.556374999999991360e+01 -3.173264938665146925e-108
5.577749999999991815e+01 -3.333668783441257601e-108
5.599124999999992269e+01 -2.627780659556741216e-108
5.620499999999992724e+01 -7.527546963796731139e-109
5.641874999999993179e+01 2.433714894634830623e-108
5.663249999999990791e+01 6.778972148811121174e-108
5.684624999999991246e+01 1.170811194737156497e-107
5.705999999999991701e+01 1.614473040659636465e-107
5.727374999999992156e+01 1.853038037366108897e-107
5.748749999999992610e+01 1.699413779460872278e-107
5.770124999999993065e+01 9.709978273636589078e-108
5.791499999999990678e+01 -4.552840984228869092e-108
5.812874999999991132e+01 -2.573390763851998617e-107
5.834249999999991587e+01 -5.175707424158612330e-107
5.855624999999992042e+01 -7.796925283249372796e-107
5.876999999999992497e+01 -9.699765142159622688e-107
5.898374999999992951e+01 -9.930591719711582131e-107
5.919749999999990564e+01 -7.468859674800417665e-107
5.941124999999991019e+01 -1.480970336578755260e-107
5.962499999999991473e+01 8.334920526064201468e-107
5.983874999999991928e+01 2.136045366779061015e-106
6.005249999999992383e+01 3.571174292391606332e-106
6.026624999999992838e+01 4.806078189549294084e-106
6.047999999999990450e+01 5.376925571250773037e-106
6.069374999999990905e+01 4.747296883079085626e-106
6.090749999999991360e+01 2.420352369929095157e-106
6.112124999999991815e+01 -1.897183920858027598e-106
6.133499999999992269e+01 -8.097119685407120677e-106
6.154874999999992724e+01 -1.547569273459175641e-105
6.176249999999993179e+01 -2.260108608303614817e-105
6.197624999999990791e+01 -2.731505553179371940e-105
6.218999999999991246e+01 -2.694314554992504069e-105
6.240374999999991701e+01 -1.876954711846470852e-105
6.261749999999992156e+01 -7.877377336645376442e-107
6.283124999999992610e+01 2.733515572667101513e-105
6.304499999999993065e+01 6.323838238274361199e-105
6.325874999999990678e+01 1.010538716632238294e-104
6.347249999999991132e+01 1.311463982673143035e-104
6.368624999999991587e+01 1.407878600024829997e-104
6.389999999999992042e+01 1.160866565422481985e-104
6.411374999999992497e+01 4.530823169716618938e-105
6.432749999999992951e+01 -7.660352512332739305e-105
6.454124999999990564e+01 -2.429453762001747687e-104
6.475499999999991019e+01 -4.307690058710518306e-104
6.496874999999991473e+01 -5.986056300684349607e-104
6.518249999999991928e+01 -6.882606506433459564e-104
6.539624999999992383e+01 -6.323768030541892212e-104
6.560999999999992838e+01 -3.687216134197183084e-104
6.582374999999990450e+01 1.392709279441544735e-104
6.603749999999990905e+01 8.782415045607674648e-104
6.625124999999991360e+01 1.761921209511829092e-103
6.646499999999991815e+01 2.616750737642104442e-103
6.667874999999992269e+01 3.184903822891235292e-103
6.689249999999992724e+01 3.153220545205429592e-103
6.710624999999990337e+01 2.213618487199124119e-103
6.731999999999990791e+01 1.543932441825865393e-104
6.753374999999991246e+01 -3.027499486141386775e-103
6.774749999999991701e+01 -7.014552808676741480e-103
6.796124999999992156e+01 -1.108998844250568371e-102
6.817499999999992610e+01 -1.413295217293687248e-102
6.838874999999990223e+01 -1.472868038996236046e-102
6.860249999999990678e+01 -1.142310610508189911e-102
6.881624999999991132e+01 -3.124850129673389882e-103
6.902999999999991587e+01 1.038419107859104419e-102
6.924374999999992042e+01 2.792132173203238204e-102
6.945749999999992497e+01 4.650467250664049312e-102
6.967124999999990109e+01 6.127077561340710502e-102
6.988499999999990564e+01 6.590238675526349025e-102
7.009874999999991019e+01 5.371485439365988645e-102
7.031249999999991473e+01 1.943439288594606307e-102
7.052624999999991928e+01 -3.848567685229907552e-102
7.073999999999992383e+01 -1.154080600457426368e-101
7.095374999999989996e+01 -1.985690680677236342e-101
7.116749999999990450e+01 -2.665089048521436936e-101
7.138124999999990905e+01 -2.907912389857733654e-101
7.159499999999991360e+01 -2.407454518998309020e-101
7.180874999999991815e+01 -9.146255015167419637e-102
7.202249999999992269e+01 1.655711683126790011e-101
7.223624999999989882e+01 5.109465860608705766e-101
7.244999999999990337e+01 8.878813888191783190e-101
7.266374999999990791e+01 1.198832581492561305e-100
7.287749999999991246e+01 1.312540173326492723e-100
7.309124999999991701e+01 1.085157648196174804e-100
7.330499999999992156e+01 3.969244283034173087e-101
7.351874999999989768e+01 -7.980195061755127311e-101
7.373249999999990223e+01 -2.416353770935131058e-100
7.394624999999990678e+01 -4.198425140014613497e-100
7.415999999999991132e+01 -5.687963197046077048e-100
7.437374999999991587e+01 -6.259828090891045551e-100
7.458749999999992042e+01 -5.214419182439938217e-100
7.480124999999992497e+01 -1.947875079916969408e-100
7.501499999999990109e+01 3.810323660104216753e-100
7.522874999999990564e+01 1.172555522012891042e-99
7.544249999999991019e+01 2.061410762478319374e-99
7.565624999999991473e+01 2.831571764208897436e-99
7.586999999999991928e+01 3.178648272752886436e-99
7.608374999999992383e+01 2.750913165373722788e-99
7.629749999999989996e+01 1.227828483092656158e-99
7.651124999999990450e+01 -1.566000477318416118e-99
7.672499999999990905e+01 -5.525123490484960829e-99
7.693874999999991360e+01 -1.013357088516017178e-98
7.715249999999991815e+01 -1.438283235266255618e-98
7.736624999999992269e+01 -1.678855863913076571e-98
7.757999999999989882e+01 -1.555690080400247420e-98
7.779374999999990337e+01 -8.936366547128314277e-99
7.800749999999990791e+01 4.242747099939786540e-99
7.822124999999991246e+01 2.389254209106034974e-98
7.843499999999991701e+01 4.797464932814629392e-98
7.864874999999992156e+01 7.198127025114038580e-98
7.886249999999989768e+01 8.883770047847764096e-98
7.907624999999990223e+01 8.949098774323276363e-98
7.928999999999990678e+01 6.440031217855229860e-98
7.950374999999991132e+01 6.007052007683696240e-99
7.971749999999991587e+01 -8.797326583127613433e-98
7.993124999999992042e+01 -2.109159095058487080e-97
8.014499999999989654e+01 -3.441497817649621780e-97
8.035874999999990109e+01 -4.554831569967721834e-97
8.057249999999990564e+01 -5.007312417999157764e-97
8.078624999999991019e+01 -4.294778878786663023e-97
8.099999999999991473e+01 -1.957940021016779228e-97
8.121374999999991928e+01 2.263543635659323273e-97
8.142749999999989541e+01 8.247291661011938538e-97
8.164124999999989996e+01 1.530961520730893685e-96
8.185499999999990450e+01 2.208454871846627658e-96
8.206874999999990905e+01 2.652553142796955342e-96
8.228249999999991360e+01 2.609622871552170090e-96
8.249624999999991815e+01 1.820094549007703622e-96
8.270999999999989427e+01 8.665780391528461943e-98
8.292374999999989882e+01 -2.637439436058640060e-96
8.313749999999990337e+01 -6.153248725203881686e-96
8.335124999999990791e+01 -9.936385727852962609e-96
8.356499999999991246e+01 -1.310269074649920791e-95
8.377874999999991701e+01 -1.445300475158256752e-95
8.399249999999989313e+01 -1.262737464509615578e-95
8.420624999999989768e+01 -6.385612038173824677e-96
8.441999999999990223e+01 4.993897831404748635e-96
8.463374999999990678e+01 2.124130332365670792e-95
8.484749999999991132e+01 4.063570147270905975e-95
8.506124999999991587e+01 5.968883600242088020e-95
8.527499999999989200e+01 7.313230257152014851e-95
8.548874999999989654e+01 7.437192178370382085e-95
8.570249999999990109e+01 5.653470436147378383e-95
8.591624999999990564e+01 1.414242486949967423e-95
8.612999999999991019e+01 -5.470213217304152732e-95
8.634374999999991473e+01 -1.459248747034216998e-94
8.655749999999989086e+01 -2.474089289260285168e-94
8.677124999999989541e+01 -3.379524468660223944e-94
8.698499999999989996e+01 -3.880641516947450923e-94
8.719874999999990450e+01 -3.633418829658008955e-94
8.741249999999990905e+01 -2.308890208341443716e-94
8.762624999999991360e+01 3.133423205545181278e-95
8.783999999999991815e+01 4.231443125526834160e-94
8.805374999999989427e+01 9.106668148978553454e-94
8.826749999999989882e+01 1.417687685943892825e-93
8.848124999999990337e+01 1.823503716476799752e-93
8.869499999999990791e+01 1.971149344437048466e-93
8.890874999999991246e+01 1.689172801176415697e-93
8.912249999999991701e+01 8.282577698046991879e-94
8.933624999999989313e+01 -6.891704779100085674e-94
8.954999999999989768e+01 -2.812485518884680479e-93
8.976374999999990223e+01 -5.310524161114111725e-93
8.997749999999990678e+01 -7.738823158945231122e-93
9.019124999999991132e+01 -9.444642956050961419e-93
9.040499999999991587e+01 -9.627499710010560423e-93
9.061874999999989200e+01 -7.467677780921151209e-93
9.083249999999989654e+01 -2.324163388109122708e-93
9.104624999999990109e+01 6.013439230846794546e-93
9.125999999999990564e+01 1.705578965935396237e-92
9.147374999999991019e+01 2.938687803618764333e-92
9.168749999999991473e+01 4.055744474735860915e-92
9.190124999999989086e+01 4.718525567117711017e-92
9.211499999999989541e+01 4.533939321063138850e-92
9.232874999999989996e+01 3.125239035398819007e-92
9.254249999999990450e+01 2.343349759644827292e-93
9.275624999999990905e+01 -4.155097699106857980e-92
9.296999999999991360e+01 -9.694265095666934239e-92
9.318374999999988972e+01 -1.557631233478331233e-91
9.339749999999989427e+01 -2.051182322705313283e-91
9.361124999999989882e+01 -2.281226421588974977e-91
9.382499999999990337e+01 -2.061322358407298551e-91
9.403874999999990791e+01 -1.225002021010963782e-91
9.425249999999991246e+01 3.233457720623392714e-92
9.446624999999988859e+01 2.550408402685741669e-91
9.467999999999989313e+01 5.239578638470648240e-91
9.489374999999989768e+01 7.955482885857301045e-91
9.510749999999990223e+01 1.004525174474301238e-90
9.532124999999990678e+01 1.069387563616864813e-90
9.553499999999991132e+01 9.045973023848268081e-91
9.574874999999988745e+01 4.395856448363230322e-91
9.596249999999989200e+01 -3.568094225104896807e-91
9.617624999999989654e+01 -1.449872226205053895e-90
9.638999999999990109e+01 -2.716013693224827266e-90
9.660374999999990564e+01 -3.930520680358181707e-90
9.681749999999991019e+01 -4.774133052062554166e-90
9.703124999999988631e+01 -4.865750843461135775e-90
9.724499999999989086e+01 -3.825642680493816722e-90
9.745874999999989541e+01 -1.368152562294891608e-90
9.767249999999989996e+01 2.584746187748393053e-90
9.788624999999990450e+01 7.786820751178427290e-90
9.809999999999990905e+01 1.357469913711277524e-89
9.831374999999988518e+01 1.883232629633038529e-89
9.852749999999988972e+01 2.204809335518309126e-89
9.874124999999989427e+01 2.149397726677958924e-89
9.895499999999989882e+01 1.554014606202947635e-89
9.916874999999990337e+01 3.092007477119029995e-90
9.938249999999990791e+01 -1.589886605906069041e-89
9.959624999999988404e+01 -3.993868929624138688e-89
9.980999999999988859e+01 -6.563629636565774898e-89
1.000237499999998931e+02 -8.763883830267175064e-89
1.002374999999998977e+02 -9.900719979839949458e-89
1.004512499999999022e+02 -9.214256644316925300e-89
1.006649999999999068e+02 -6.029434735767784031e-89
1.008787499999998829e+02 4.457432453289684290e-91
1.010924999999998875e+02 8.891813051129019326e-89
1.013062499999998920e+02 1.968637733702902325e-88
1.015199999999998965e+02 3.076580917015101071e-88
1.017337499999999011e+02 3.964575374588723136e-88
1.019474999999999056e+02 4.323610269778146504e-88
1.021612499999999102e+02 3.829798732261750147e-88
1.023749999999998863e+02 2.214141464398466852e-88
1.025887499999998909e+02 -6.493864339659598843e-89
1.028024999999998954e+02 -4.650073091709703598e-88
1.030162499999999000e+02 -9.360656539306924670e-88
1.032299999999999045e+02 -1.399650542378329307e-87
1.034437499999999091e+02 -1.744072741952431615e-87
1.036574999999998852e+02 -1.835848960963984853e-87
1.038712499999998897e+02 -1.541307428644096377e-87
1.040849999999998943e+02 -7.577744739420002210e-88
1.042987499999998988e+02 5.487648324375396847e-88
1.045124999999999034e+02 2.305521650480433427e-87
1.047262499999999079e+02 4.302995299987384597e-87
1.049399999999998840e+02 6.183894672318876902e-87
1.051537499999998886e+02 7.461678583179497037e-87
1.053674999999998931e+02 7.577256342651630575e-87
1.055812499999998977e+02 5.997169051804965948e-87
1.057949999999999022e+02 2.348323668847707988e-87
1.060087499999999068e+02 -3.426291673203026059e-87
1.062224999999998829e+02 -1.091805595256267988e-86
1.064362499999998875e+02 -1.914666667170425711e-86
1.066499999999998920e+02 -2.654078204977432790e-86
1.068637499999998965e+02 -3.104683251457844496e-86
1.070774999999999011e+02 -3.039540951651591028e-86
1.072912499999999056e+02 -2.253063775566956538e-86
1.075049999999998818e+02 -6.172552945096600698e-87
1.077187499999998863e+02 1.856083015362657529e-86
1.079324999999998909e+02 4.958965412393009145e-86
1.081462499999998954e+02 8.252047698137833947e-86
1.083599999999999000e+02 1.106761445814501318e-85
1.085737499999999045e+02 1.256598113445910188e-85
1.087874999999998806e+02 1.185465887007108444e-85
1.090012499999998852e+02 8.169136526649619222e-86
1.092149999999998897e+02 1.099576241933982812e-86
1.094287499999998943e+02 -9.169230243850328305e-86
1.096424999999998988e+02 -2.165373173374990324e-85
1.098562499999999034e+02 -3.446435163185390113e-85
1.100699999999998795e+02 -4.485903765664804558e-85
1.102837499999998840e+02 -4.951113329622480776e-85
1.104974999999998886e+02 -4.501825668862161990e-85
1.107112499999998931e+02 -2.863518524130769518e-85
1.109249999999998977e+02 8.436614510168133444e-87
1.111387499999999022e+02 4.219015346806880026e-85
1.113524999999998784e+02 9.103270746793439148e-85
1.115662499999998829e+02 1.395636413103128568e-84
1.117799999999998875e+02 1.768956114407660961e-84
1.119937499999998920e+02 1.902460274610715557e-84
1.122074999999998965e+02 1.670143234351309755e-84
1.124212499999999011e+02 9.764371683596927244e-85
1.126349999999998772e+02 -2.105779016485107777e-85
1.128487499999998818e+02 -1.826915373172567974e-84
1.130624999999998863e+02 -3.688870245638022525e-84
1.132762499999998909e+02 -5.486199155891575163e-84
1.134899999999998954e+02 -6.800405716007516674e-84
1.137037499999999000e+02 -7.153861913666866303e-84
1.139174999999998761e+02 -6.090944246504813604e-84
1.141312499999998806e+02 -3.285818256890725402e-84
1.143449999999998852e+02 1.336353439671727511e-84
1.145587499999998897e+02 7.485956928804940452e-84
1.147724999999998943e+02 1.443075691556790417e-83
1.149862499999998988e+02 2.098332284733703167e-83
1.151999999999998749e+02 2.558164839467861951e-83
1.154137499999998795e+02 2.648090367369424295e-83
1.156274999999998840e+02 2.205717541251937089e-83
1.158412499999998886e+02 1.120046766217146867e-83
1.160549999999998931e+02 -6.253199936023485291e-84
1.162687499999998977e+02 -2.912763656590739217e-83
1.164824999999999022e+02 -5.464775688167328855e-83
1.166962499999998784e+02 -7.842119295044074097e-83
1.169099999999998829e+02 -9.475329735678474431e-83
1.171237499999998875e+02 -9.735306700115073395e-83
1.173374999999998920e+02 -8.042723282357645509e-83
1.175512499999998965e+02 -4.007834413512162250e-83
1.177649999999999011e+02 2.417067667233156575e-83
1.179787499999998772e+02 1.079935250593929981e-82
1.181924999999998818e+02 2.013553738510427656e-82
1.184062499999998863e+02 2.884465167915575360e-82
1.186199999999998909e+02 3.487763590866569606e-82
1.188337499999998954e+02 3.596314716798261146e-82
1.190474999999999000e+02 2.999009212368031615e-82
1.192612499999998761e+02 1.549993826507028369e-82
1.194749999999998806e+02 -7.769842624868266622e-83
1.196887499999998852e+02 -3.838137177226850900e-82
1.199024999999998897e+02 -7.284639054443979782e-82
1.201162499999998943e+02 -1.055579419402727681e-81
1.203299999999998988e+02 -1.291223671061594296e-81
1.205437499999998749e+02 -1.351756345871183601e-81
1.207574999999998795e+02 -1.157044362272288409e-81
1.209712499999998840e+02 -6.480140486433569711e-82
1.211849999999998886e+02 1.932774690012688116e-82
1.213987499999998931e+02 1.324060479327428294e-81
1.216124999999998977e+02 2.625830829197080737e-81
1.218262499999998738e+02 3.898646199972976618e-81
1.220399999999998784e+02 4.869537049143176206e-81
1.222537499999998829e+02 5.218952891065201462e-81
1.224674999999998875e+02 4.627173909940864830e-81
1.226812499999998920e+02 2.839439612857561859e-81
1.228949999999998965e+02 -2.556960722979298931e-82
1.231087499999998727e+02 -4.545197506123435712e-81
1.233224999999998772e+02 -9.622903411581632201e-81
1.235362499999998818e+02 -1.475267365406772991e-80
1.237499999999998863e+02 -1.888430358791098487e-80
1.239637499999998909e+02 -2.074132907091920290e-80
1.241774999999998954e+02 -1.899320755924659611e-80
1.243912499999998715e+02 -1.251215626619895338e-80
1.246049999999998761e+02 -6.971939669540564634e-82
1.248187499999998806e+02 1.617408250070775189e-80
1.250324999999998852e+02 3.662897386959888577e-80
1.252462499999998897e+02 5.780197514990573260e-80
1.254599999999998943e+02 7.545119956478991531e-80