2.024999999999579359e-01 -3.068127044920665266e-143
4.162499999999482725e-01 1.951317670910088988e-142
6.299999999999528200e-01 6.011551052242979443e-142
8.437499999999573674e-01 1.201000333724495776e-141
1.057499999999947704e+00 1.925273949224472338e-141
1.271249999999952252e+00 2.555670874758272563e-141
1.484999999999956799e+00 2.655241544894456169e-141
1.698749999999947136e+00 1.525902268996420259e-141
1.912499999999951683e+00 -1.752277629824795669e-141
2.126249999999956231e+00 -8.121768001522490059e-141
2.339999999999946567e+00 -1.809784461306653774e-140
2.553749999999951115e+00 -3.099730007211124406e-140
2.767499999999955662e+00 -4.385256653730954173e-140
2.981249999999945999e+00 -5.018494012998337948e-140
3.194999999999950546e+00 -3.908589712128531318e-140
3.408749999999955094e+00 4.572071861407452321e-141
3.622499999999945430e+00 9.757764959707376940e-140
3.836249999999949978e+00 2.520093839525461542e-139
4.049999999999954525e+00 4.637763735452126296e-139
4.263749999999944862e+00 6.958421861096883538e-139
4.477499999999949409e+00 8.582642765567517239e-139
4.691249999999953957e+00 7.911945132669103547e-139
4.904999999999944293e+00 2.625564411350778875e-139
5.118749999999948841e+00 -1.001728869535803243e-138
5.332499999999953388e+00 -3.232707541897456074e-138
5.546249999999943725e+00 -6.457799213944376395e-138
5.759999999999948272e+00 -1.025719026094079977e-137
5.973749999999952820e+00 -1.346154201911760318e-137
6.187499999999943157e+00 -1.387079650425298537e-137
6.401249999999947704e+00 -8.152451242932962745e-138
6.614999999999952252e+00 7.832892307532852220e-138
6.828749999999942588e+00 3.796162517437142340e-137
7.042499999999947136e+00 8.372189194294462058e-137
7.256249999999951683e+00 1.408828198465423413e-136
7.469999999999942020e+00 1.952150331682985000e-136
7.683749999999946567e+00 2.182458796697396719e-136
7.897499999999951115e+00 1.650797989274317890e-136
8.111249999999941451e+00 -2.246808122427822793e-137
8.324999999999945999e+00 -4.031785765532164907e-136
8.538749999999950546e+00 -1.009850496977390571e-135
8.752499999999940883e+00 -1.806366810172817566e-135
8.966249999999945430e+00 -2.630894165520615360e-135
9.179999999999949978e+00 -3.136734621805935539e-135
9.393749999999940314e+00 -2.755525968641727029e-135
9.607499999999944862e+00 -7.230551749349435288e-136
9.821249999999949409e+00 3.778770651940879539e-135
1.003499999999993975e+01 1.130771014765709550e-134
1.024874999999994429e+01 2.163904528383729473e-134
1.046249999999994884e+01 3.305736310677094847e-134
1.067624999999993918e+01 4.159051844311204105e-134
1.088999999999994373e+01 4.047073976465713601e-134
1.110374999999994827e+01 2.029497366959357941e-134
1.131749999999993861e+01 -2.947941583708154789e-134
1.153124999999994316e+01 -1.170232207959043270e-133
1.174499999999994770e+01 -2.421425100632748453e-133
1.195874999999993804e+01 -3.879734241089102075e-133
1.217249999999994259e+01 -5.117220919153931230e-133
1.238624999999994714e+01 -5.375673920224557741e-133
1.259999999999993747e+01 -3.569601557959155867e-133
1.281374999999994202e+01 1.565594421324795109e-133
1.302749999999994657e+01 1.110291735748349043e-132
1.324124999999995111e+01 2.527480494184818656e-132
1.345499999999994145e+01 4.255671646190392653e-132
1.366874999999994600e+01 5.861975310238486105e-132
1.388249999999995055e+01 6.547542010260023264e-132
1.409624999999994088e+01 5.136063024112586228e-132
1.430999999999994543e+01 2.113995995742564772e-133
1.452374999999994998e+01 -9.513205591689697630e-132
1.473749999999994031e+01 -2.453268080655855144e-131
1.495124999999994486e+01 -4.359901918863419866e-131
1.516499999999994941e+01 -6.261167501834388923e-131
1.537874999999993975e+01 -7.366612631470321580e-131
1.559249999999994429e+01 -6.480201764254309203e-131
1.580624999999994884e+01 -2.119600160123848401e-131
1.601999999999993918e+01 7.137689883490826943e-131
1.623374999999994373e+01 2.201809695823248718e-130
1.644749999999994827e+01 4.162478895675529025e-130
1.666124999999993861e+01 6.233701803441692528e-130
1.687499999999994316e+01 7.682873086725683524e-130
1.708874999999994770e+01 7.370959093944585700e-130
1.730249999999993804e+01 3.848215628990238902e-130
1.751624999999994259e+01 -4.341489735088981773e-130
1.772999999999994714e+01 -1.808756456987264721e-129
1.794374999999993747e+01 -3.686603112654173910e-129
1.815749999999994202e+01 -5.771936181504315268e-129
1.837124999999994657e+01 -7.431703994504825596e-129
1.858499999999993690e+01 -7.653492575722355282e-129
1.879874999999994145e+01 -5.115700302352467320e-129
1.901249999999994600e+01 1.563038736489197986e-129
1.922624999999993634e+01 1.334221391134826027e-128
1.943999999999994088e+01 3.003884765905703119e-128
1.965374999999994543e+01 4.944789140281302492e-128
1.986749999999993577e+01 6.650975229192719284e-128
2.008124999999994031e+01 7.287987496694507240e-128
2.029499999999994486e+01 5.738745257432830803e-128
2.050874999999993520e+01 7.922131069194608940e-129
2.072249999999993975e+01 -8.482379440916590285e-128
2.093624999999994429e+01 -2.216894722807800189e-127
2.114999999999993463e+01 -3.880505865633547370e-127
2.136374999999993918e+01 -5.470400538727444069e-127
2.157749999999994373e+01 -6.356283898194529469e-127
2.179124999999993406e+01 -5.671605310745357650e-127
2.200499999999993861e+01 -2.442909196511515981e-127
2.221874999999994316e+01 4.145769410748522341e-127
2.243249999999993349e+01 1.434807809297117127e-126
2.264624999999993804e+01 2.735078242738496153e-126
2.285999999999994259e+01 4.077442853986045795e-126
2.307374999999993292e+01 5.035626686321674506e-126
2.328749999999993747e+01 5.005195681243877555e-126
2.350124999999994202e+01 3.280982925961246534e-126
2.371499999999993236e+01 -7.787691138125003136e-127
2.392874999999993690e+01 -7.498568734686437826e-126
2.414249999999994145e+01 -1.656720851201000377e-125
2.435624999999993179e+01 -2.671688320895207048e-125
2.456999999999993634e+01 -3.550105852480559341e-125
2.478374999999994088e+01 -3.930071168486750558e-125
2.499749999999993122e+01 -3.369070589595179135e-125
2.521124999999993577e+01 -1.425848749859918641e-125
2.542499999999994031e+01 2.212279045999016391e-125
2.563874999999993065e+01 7.570006312108449272e-125
2.585249999999993520e+01 1.422140794176054208e-124
2.606624999999993975e+01 2.116596752731547145e-124
2.627999999999994429e+01 2.678950957766860104e-124
2.649374999999993463e+01 2.894674222619164841e-124
2.670749999999993918e+01 2.517691393913360698e-124
2.692124999999994373e+01 1.302858226088701044e-124
2.713499999999993406e+01 -9.561474645473911885e-125
2.734874999999993861e+01 -4.389303711577125277e-124
2.756249999999994316e+01 -9.013752430270352946e-124
2.777624999999993349e+01 -1.468697311469969968e-123
2.798999999999993804e+01 -2.102093915370688110e-123
2.820374999999994259e+01 -2.721288267247476063e-123
2.841749999999993292e+01 -3.174790616637787820e-123
2.863124999999993747e+01 -3.196323508378631936e-123
2.884499999999994202e+01 -2.355425653098351951e-123
2.905874999999993236e+01 -2.606091443584878534e-125
2.927249999999993690e+01 4.581590392415371055e-123
2.948624999999994145e+01 1.225960297981059307e-122
2.969999999999993179e+01 2.343438011820414744e-122
2.991374999999993634e+01 3.753408699714997264e-122
3.012749999999994088e+01 5.210084048941873407e-122
3.034124999999993122e+01 6.179156107190219729e-122
3.055499999999993577e+01 5.761623576844360930e-122
3.076874999999994031e+01 2.701181371565092163e-122
3.098249999999993065e+01 -4.442640863877986421e-122
3.119624999999993520e+01 -1.686613671210863548e-121
3.140999999999993975e+01 -3.477370402505889203e-121
3.162374999999993008e+01 -5.632368046067432279e-121
3.183749999999993463e+01 -7.642402137983980429e-121
3.205124999999993918e+01 -8.574286512569918228e-121
3.226499999999992951e+01 -7.054400778465215134e-121
3.247874999999993406e+01 -1.416853745628456148e-121
3.269249999999993861e+01 9.895561697245367910e-121
3.290624999999992895e+01 2.761408536474623921e-120
3.311999999999993349e+01 5.061867129629259678e-120
3.333374999999993804e+01 7.474341222655081366e-120
3.354749999999992838e+01 9.173824133291295819e-120
3.376124999999993292e+01 8.892870457870181138e-120
3.397499999999993747e+01 5.030072119201113205e-120
3.418874999999992781e+01 -4.020711834575952473e-120
3.440249999999993236e+01 -1.926232980919530999e-119
3.461624999999993690e+01 -4.020871161381135740e-119
3.482999999999992724e+01 -6.382998381442030180e-119
3.504374999999993179e+01 -8.358936073249147495e-119
3.525749999999993634e+01 -8.900945873186335993e-119
3.547124999999992667e+01 -6.635839257941767273e-119
3.568499999999993122e+01 -1.098384596065497942e-120
3.589874999999993577e+01 1.174068926995856670e-118
3.611249999999992610e+01 2.888762473525470098e-118
3.632624999999993065e+01 4.935494161341477890e-118
3.653999999999993520e+01 6.840066176295032550e-118
3.675374999999992554e+01 7.806503004683983899e-118
3.696749999999993008e+01 6.753257602060179005e-118
3.718124999999993463e+01 2.480370095163553874e-118
3.739499999999992497e+01 -5.992375823813319797e-118
3.760874999999992951e+01 -1.890741658454193854e-117
3.782249999999993406e+01 -3.512039288426317223e-117
3.803624999999993861e+01 -5.145254877684556351e-117
3.824999999999994316e+01 -6.227535634685125955e-117
3.846374999999991928e+01 -5.964747513174828124e-117
3.867749999999992383e+01 -3.436596426488241472e-117
3.889124999999992838e+01 2.176148752349984713e-117
3.910499999999993292e+01 1.123197496515729249e-116
3.931874999999993747e+01 2.316484034384623086e-116
3.953249999999994202e+01 3.600146092055290983e-116
3.974624999999991815e+01 4.601296638803589781e-116
3.995999999999992269e+01 4.771807087086559168e-116
4.017374999999992724e+01 3.448935069969365739e-116
4.038749999999993179e+01 -1.342275841202091500e-119
4.060124999999993634e+01 -5.948294246741776760e-116
4.081499999999994088e+01 -1.418225663317135736e-115
4.102874999999991701e+01 -2.357367347358710931e-115
4.124249999999992156e+01 -3.180181355032455711e-115
4.145624999999992610e+01 -3.529341905036677551e-115
4.166999999999993065e+01 -2.953837854905731153e-115
4.188374999999993520e+01 -9.938677494248084270e-116
4.209749999999993975e+01 2.672378442077198693e-115
4.231124999999991587e+01 8.026254665754651434e-115
4.252499999999992042e+01 1.447947513244920772e-114
4.273874999999992497e+01 2.067577298021313439e-114
4.295249999999992951e+01 2.440984833607732562e-114
4.316624999999993406e+01 2.276987255276388542e-114
4.337999999999993861e+01 1.260797536595121533e-114
4.359374999999991473e+01 -8.594182891721928635e-115
4.380749999999991928e+01 -4.148178798940605567e-114
4.402124999999992383e+01 -8.335666170816410150e-114
4.423499999999992838e+01 -1.268060299149464672e-113
4.444874999999993292e+01 -1.589391458191654434e-113
4.466249999999993747e+01 -1.618798855179736618e-113
4.487624999999991360e+01 -1.151849656708998618e-113
4.508999999999991815e+01 -6.778938499749694129e-116
4.530374999999992269e+01 1.902644053096975469e-113
4.551749999999992724e+01 4.476937396009029641e-113
4.573124999999993179e+01 7.340811011574547599e-113
4.594499999999993634e+01 9.781755164495061208e-113
4.615874999999991246e+01 1.075524841065308884e-112
4.637249999999991701e+01 8.997844213333319290e-113
4.658624999999992156e+01 3.281849019513729597e-113
4.679999999999992610e+01 -7.177614711738857375e-113
4.701374999999993065e+01 -2.219317112463429867e-112
4.722749999999993520e+01 -4.004057535571640244e-112
4.744124999999993975e+01 -5.701213997345761760e-112
4.765499999999991587e+01 -6.730130893066761216e-112
4.786874999999992042e+01 -6.346286817366328241e-112
4.808249999999992497e+01 -3.766877614781037820e-112
4.829624999999992951e+01 1.612786575621330788e-112
4.850999999999993406e+01 9.921684868595907896e-112
4.872374999999993861e+01 2.047473698195370914e-111
4.893749999999991473e+01 3.147165794347562113e-111
4.915124999999991928e+01 3.984782638017218928e-111
4.936499999999992383e+01 4.141658595603084427e-111
4.957874999999992838e+01 3.143984024771471614e-111
4.979249999999993292e+01 5.718311004001536441e-112
5.000624999999993747e+01 -3.780795689216862992e-111
5.021999999999991360e+01 -9.711756216735274231e-111
5.043374999999991815e+01 -1.641983489377427319e-110
5.064749999999992269e+01 -2.237627979696351967e-110
5.086124999999992724e+01 -2.533534025259364410e-110
5.107499999999993179e+01 -2.256527413141866929e-110
5.128874999999993634e+01 -1.136500356888432746e-110
5.150249999999991246e+01 1.011385234431656950e-110
5.171624999999991701e+01 4.179846635693288141e-110
5.192999999999992156e+01 8.054714668593697396e-110
5.214374999999992610e+01 1.192139640374764863e-109
5.235749999999993065e+01 1.463296831560136870e-109
5.257124999999993520e+01 1.468641777936601777e-109
5.278499999999991132e+01 1.044966445665202283e-109
5.299874999999991587e+01 5.632866489896237535e-111
5.321249999999992042e+01 -1.549599806781613514e-109
5.342624999999992497e+01 -3.675813069453366896e-109
5.363999999999992951e+01 -6.014486426058893705e-109
5.385374999999993406e+01 -8.010223264025319696e-109
5.406749999999991019e+01 -8.873546257522922026e-109
5.428124999999991473e+01 -7.670720645670582437e-109
5.449499999999991928e+01 -3.509326274976103578e-109
5.470874999999992383e+01 4.177285829198263476e-109
5.492249999999992838e+01 1.527038538475278064e-108
5.513624999999993292e+01 2.859078124797664662e-108
5.534999999999990905e+01 4.160792686674159046e-108
5.556374999999991360e+01 5.036769735737013682e-108
5.577749999999991815e+01 4.978983281166846584e-108
5.599124999999992269e+01 3.446858751623421091e-108
5.620499999999992724e+01 4.361347248264236906e-111
5.641874999999993179e+01 -5.491728492082129956e-108
5.663249999999990791e+01 -1.267647390358917425e-107
5.684624999999991246e+01 -2.048063403572505021e-107
5.705999999999991701e+01 -2.702182589036972426e-107
5.727374999999992156e+01 -2.966618093108505766e-107
5.748749999999992610e+01 -2.534357117284661802e-107
5.770124999999993065e+01 -1.117522827437873689e-107
5.791499999999990678e+01 1.458306781154671475e-107
5.812874999999991132e+01 5.136852092490674301e-107
5.834249999999991587e+01 9.511316816346905156e-107
5.855624999999992042e+01 1.373511644642298165e-106
5.876999999999992497e+01 1.650693299036155700e-106
5.898374999999992951e+01 1.617813836226265312e-106
5.919749999999990564e+01 1.102345823808054384e-106
5.941124999999991019e+01 -3.074997535652514532e-108
5.962499999999991473e+01 -1.818225123436614891e-106
5.983874999999991928e+01 -4.130497226857489975e-106
6.005249999999992383e+01 -6.611771940840027886e-106
6.026624999999992838e+01 -8.650395173441484177e-106
6.047999999999990450e+01 -9.405625108471915431e-106
6.069374999999990905e+01 -7.915947975583378506e-106
6.090749999999991360e+01 -3.305081743211385489e-106
6.112124999999991815e+01 4.917078575699724996e-106
6.133499999999992269e+01 1.649038629190849507e-105
6.154874999999992724e+01 3.004573902471531347e-105
6.176249999999993179e+01 4.285829185780906301e-105
6.197624999999990791e+01 5.084825147998188043e-105
6.218999999999991246e+01 4.897147310717409911e-105
6.240374999999991701e+01 3.211117207170376070e-105
6.261749999999992156e+01 -3.498872468055141458e-106
6.283124999999992610e+01 -5.842537607159096668e-105
6.304499999999993065e+01 -1.280499875500898818e-104
6.325874999999990678e+01 -2.009405194310661452e-104
6.347249999999991132e+01 -2.582501870771649933e-104
6.368624999999991587e+01 -2.749006749190432492e-104
6.389999999999992042e+01 -2.232187692908919838e-104
6.411374999999992497e+01 -7.936783117055404261e-105
6.432749999999992951e+01 1.676971874381035072e-104
6.454124999999990564e+01 5.059017480992444189e-104
6.475499999999991019e+01 8.905425058636416467e-104
6.496874999999991473e+01 1.238781001850381487e-103
6.518249999999991928e+01 1.431953293746098819e-103
6.539624999999992383e+01 1.329388804356297874e-103
6.560999999999992838e+01 7.961805415806238222e-104
6.582374999999990450e+01 -2.553012530737351857e-104
6.603749999999990905e+01 -1.814419554490942474e-103
6.625124999999991360e+01 -3.721149459698326712e-103
6.646499999999991815e+01 -5.629360039289497117e-103
6.667874999999992269e+01 -7.002901411404022471e-103
6.689249999999992724e+01 -7.163601284215163284e-103
6.710624999999990337e+01 -5.405870912667617035e-103
6.731999999999990791e+01 -1.181582264198133823e-103
6.753374999999991246e+01 5.659239249763592266e-103
6.774749999999991701e+01 1.461020131480697597e-102
6.796124999999992156e+01 2.429691539640823469e-102
6.817499999999992610e+01 3.239747611807772363e-102
6.838874999999990223e+01 3.578905505512120965e-102
6.860249999999990678e+01 3.100071037230260815e-102
6.881624999999991132e+01 1.500812601616343707e-102
6.902999999999991587e+01 -1.367255255373351278e-102
6.924374999999992042e+01 -5.374312593487037236e-102
6.945749999999992497e+01 -1.000086930872682867e-101
6.967124999999990109e+01 -1.427753504922728908e-101
6.988499999999990564e+01 -1.682050383346250911e-101
7.009874999999991019e+01 -1.600358615357389816e-101
7.031249999999991473e+01 -1.029030872842929434e-101
7.052624999999991928e+01 1.283693539755656433e-102
7.073999999999992383e+01 1.853599145258470437e-101
7.095374999999989996e+01 3.958560044363317737e-101
7.116749999999990450e+01 6.049389386844683030e-101
7.138124999999990905e+01 7.530263414461465195e-101
7.159499999999991360e+01 7.666787324371596619e-101
7.180874999999991815e+01 5.722257183807014304e-101
7.202249999999992269e+01 1.166170127615865550e-101
7.223624999999989882e+01 -6.066739120761321895e-101
7.244999999999990337e+01 -1.531466945005329346e-100
7.266374999999990791e+01 -2.499788416487394469e-100
7.287749999999991246e+01 -3.259105829278416128e-100
7.309124999999991701e+01 -3.485275194712213719e-100
7.330499999999992156e+01 -2.838129746416991219e-100
7.351874999999989768e+01 -1.050867531272625776e-100
7.373249999999990223e+01 1.954769637470500742e-100
7.394624999999990678e+01 5.947237420801920694e-100
7.415999999999991132e+01 1.028975874158864578e-99
7.437374999999991587e+01 1.391204147581882251e-99
7.458749999999992042e+01 1.539287302459728976e-99
7.480124999999992497e+01 1.318830101319360671e-99
7.501499999999990109e+01 6.016192742505148583e-100
7.522874999999990564e+01 -6.631834813917496878e-100
7.544249999999991019e+01 -2.393270371001921879e-99
7.565624999999991473e+01 -4.326685354701194935e-99
7.586999999999991928e+01 -6.003129882350128902e-99
7.608374999999992383e+01 -6.793410698168151435e-99
7.629749999999989996e+01 -5.994187381460843667e-99
7.651124999999990450e+01 -2.995287353904709218e-99
7.672499999999990905e+01 2.490470636520945161e-99
7.693874999999991360e+01 1.016871609593486246e-98
7.715249999999991815e+01 1.893662683870796045e-98
7.736624999999992269e+01 2.677143891654830722e-98
7.757999999999989882e+01 3.082962721739292873e-98
7.779374999999990337e+01 2.784194508115136878e-98
7.800749999999990791e+01 1.484912380672807489e-98
7.822124999999991246e+01 -9.752317385249317966e-99
7.843499999999991701e+01 -4.499203535465485183e-98
7.864874999999992156e+01 -8.619895356200576627e-98
7.886249999999989768e+01 -1.243458471581891564e-97
7.907624999999990223e+01 -1.463158361317886565e-97
7.928999999999990678e+01 -1.365184892265018500e-97
7.950374999999991132e+01 -8.012397529312168400e-98
7.971749999999991587e+01 3.214027338382433836e-98
7.993124999999992042e+01 1.981705792188413971e-97
8.014499999999989654e+01 3.987788630607683291e-97
8.035874999999990109e+01 5.938178433670049051e-97
8.057249999999990564e+01 7.222765294440388417e-97
8.078624999999991019e+01 7.085082390351977251e-97
8.099999999999991473e+01 4.761706910746700015e-97
8.121374999999991928e+01 -2.989673283116144953e-98
8.142749999999989541e+01 -8.157922380577624343e-97
8.164124999999989996e+01 -1.809385476989411119e-96
8.185499999999990450e+01 -2.837541209409547377e-96
8.206874999999990905e+01 -3.619790943854357763e-96
8.228249999999991360e+01 -3.789331907710408743e-96
8.249624999999991815e+01 -2.950412262895469267e-96
8.270999999999989427e+01 -7.757820097009715747e-97
8.292374999999989882e+01 2.861459790771768055e-96
8.313749999999990337e+01 7.740125103090803162e-96
8.335124999999990791e+01 1.316040581231061327e-95
8.356499999999991246e+01 1.787687284475113518e-95
8.377874999999991701e+01 2.014872418172017092e-95
8.399249999999989313e+01 1.795736790097294217e-95
8.420624999999989768e+01 9.421834264172287923e-96
8.441999999999990223e+01 -6.596178221322588331e-96
8.463374999999990678e+01 -2.976312537531529213e-95
8.484749999999991132e+01 -5.755585047245266498e-95
8.506124999999991587e+01 -8.476099462458297453e-95
8.527499999999989200e+01 -1.034484731718172905e-94
8.548874999999989654e+01 -1.036836207735342172e-94
8.570249999999990109e+01 -7.518160039019451585e-95
8.591624999999990564e+01 -9.958018898194922251e-96
8.612999999999991019e+01 9.421484546273534557e-95
8.634374999999991473e+01 2.300598541245178136e-94
8.655749999999989086e+01 3.776236490911591646e-94
8.677124999999989541e+01 5.028584418059649552e-94
8.698499999999989996e+01 5.592843550770385530e-94
8.719874999999990450e+01 4.939306127053609155e-94
8.741249999999990905e+01 2.582315159679885240e-94
8.762624999999991360e+01 -1.764286632121161070e-94
8.783999999999991815e+01 -8.002460436577849628e-94
8.805374999999989427e+01 -1.547029209756187164e-93
8.826749999999989882e+01 -2.281837122341082855e-93
8.848124999999990337e+01 -2.800516820717984763e-93
8.869499999999990791e+01 -2.847562738214214476e-93
8.890874999999991246e+01 -2.157196205957651185e-93
8.912249999999991701e+01 -5.189346588268430714e-94
8.933624999999989313e+01 2.136944308094487634e-93
8.954999999999989768e+01 5.646340334538886480e-93
8.976374999999990223e+01 9.531411553293395228e-93
8.997749999999990678e+01 1.296187838957800247e-92
9.019124999999991132e+01 1.478933759127072756e-92
9.040499999999991587e+01 1.368360092141752230e-92
9.061874999999989200e+01 8.388205644165678470e-93
9.083249999999989654e+01 -1.910272606487731796e-93
9.104624999999990109e+01 -1.713718860886981611e-92
9.125999999999990564e+01 -3.588671153979413696e-92
9.147374999999991019e+01 -5.509776572240423363e-92
9.168749999999991473e+01 -6.999526176739386395e-92
9.190124999999989086e+01 -7.444859484076236500e-92
9.211499999999989541e+01 -6.186837357503597385e-92
9.232874999999989996e+01 -2.668395363993555303e-92
9.254249999999990450e+01 3.368506820980392296e-92
9.275624999999990905e+01 1.166229052671589264e-91
9.296999999999991360e+01 2.123296227740020575e-91
9.318374999999988972e+01 3.026770162574729673e-91
9.339749999999989427e+01 3.616332237465108509e-91
9.361124999999989882e+01 3.579425593008211362e-91
9.382499999999990337e+01 2.605119448132176199e-91
9.403874999999990791e+01 4.648540048531550640e-92
9.425249999999991246e+01 -2.887132423622196056e-91
9.446624999999988859e+01 -7.209571345705906955e-91
9.467999999999989313e+01 -1.189094926231229047e-90
9.489374999999989768e+01 -1.591917750334357663e-90
9.510749999999990223e+01 -1.793840538472237572e-90
9.532124999999990678e+01 -1.642204512929099412e-90
9.553499999999991132e+01 -9.975870390342121451e-91
9.574874999999988745e+01 2.241247950594622118e-91
9.596249999999989200e+01 2.002756432013085786e-90
9.617624999999989654e+01 4.166989880156999367e-90
9.638999999999990109e+01 6.362581709892169745e-90
9.660374999999990564e+01 8.051175290906202143e-90
9.681749999999991019e+01 8.555116836514960155e-90
9.703124999999988631e+01 7.159609177880053317e-90
9.724499999999989086e+01 3.274589222104031878e-90
9.745874999999989541e+01 -3.355218574619827130e-90
9.767249999999989996e+01 -1.242144361197568831e-89
9.788624999999990450e+01 -2.285287409730328195e-89
9.809999999999990905e+01 -3.271055843469960498e-89
9.831374999999988518e+01 -3.924955959532331577e-89
9.852749999999988972e+01 -3.921296153180638389e-89
9.874124999999989427e+01 -2.939718349055023873e-89
9.895499999999989882e+01 -7.478455090951146994e-90
9.916874999999990337e+01 2.698010639878621129e-89
9.938249999999990791e+01 7.150550648457840865e-89
9.959624999999988404e+01 1.199239780517988400e-88
9.980999999999988859e+01 1.621113927563921308e-88
1.000237499999998931e+02 1.846073546414042536e-88
1.002374999999998977e+02 1.723542047163346781e-88
1.004512499999999022e+02 1.116665450045727937e-88
1.006649999999999068e+02 -5.719304756344510500e-90
1.008787499999998829e+02 -1.780071088497790685e-88
1.010924999999998875e+02 -3.889850418638615658e-88
1.013062499999998920e+02 -6.051672744244563609e-88
1.015199999999998965e+02 -7.758515160779862135e-88
1.017337499999999011e+02 -8.374590102178833519e-88
1.019474999999999056e+02 -7.231073360399994952e-88
1.021612499999999102e+02 -3.775184726108993143e-88
1.023749999999998863e+02 2.239073110858848206e-88
1.025887499999998909e+02 1.054600240682490298e-87
1.028024999999998954e+02 2.019299471527031294e-87
1.030162499999999000e+02 2.945207853241146550e-87
1.032299999999999045e+02 3.588055266466475610e-87
1.034437499999999091e+02 3.658534511368906323e-87
1.036574999999998852e+02 2.872100331883547946e-87
1.038712499999998897e+02 1.020763638665429191e-87
1.040849999999998943e+02 -1.940527767854036106e-87
1.042987499999998988e+02 -5.807341404367090259e-87
1.045124999999999034e+02 -1.006016522628211365e-86
1.047262499999999079e+02 -1.384548330586837684e-86
1.049399999999998840e+02 -1.602963674607916150e-86
1.051537499999998886e+02 -1.534575631206472899e-86
1.053674999999998931e+02 -1.064058124931479529e-86
1.055812499999998977e+02 -1.206676825133820441e-87
1.057949999999999022e+02 1.284191476473644401e-86
1.060087499999999068e+02 3.022228538824334224e-86
1.062224999999998829e+02 4.826095163676178220e-86
1.064362499999998875e+02 6.290884340319763044e-86
1.066499999999998920e+02 6.909667144582614267e-86
1.068637499999998965e+02 6.149841118122935616e-86
1.070774999999999011e+02 3.570196547599822525e-86
1.072912499999999056e+02 -1.031330902426172734e-86
1.075049999999998818e+02 -7.461216617027819266e-86
1.077187499999998863e+02 -1.499919032297219627e-85
1.079324999999998909e+02 -2.233543451276565377e-85
1.081462499999998954e+02 -2.762189985349586998e-85
1.083599999999999000e+02 -2.867628810727729903e-85
1.085737499999999045e+02 -2.335748092478906132e-85
1.087874999999998806e+02 -1.009808244191186677e-85
1.090012499999998852e+02 1.146458198280653905e-85
1.092149999999998897e+02 3.986742010238457791e-85
1.094287499999998943e+02 7.136440294409842953e-85
1.096424999999998988e+02 9.981557487886794026e-85
1.098562499999999034e+02 1.171013875539829366e-84
1.100699999999998795e+02 1.141937128402585963e-84
1.102837499999998840e+02 8.291446491889696376e-85
1.104974999999998886e+02 1.826093719325772797e-85
1.107112499999998931e+02 -7.901204874426028475e-85
1.109249999999998977e+02 -2.000598761872636744e-84
1.111387499999999022e+02 -3.265329504883068934e-84
1.113524999999998784e+02 -4.308156004821759280e-84
1.115662499999998829e+02 -4.785790465886290866e-84
1.117799999999998875e+02 -4.340396378368303550e-84
1.119937499999998920e+02 -2.678349033213821338e-84
1.122074999999998965e+02 3.323392560357558714e-85
1.124212499999999011e+02 4.561135598569514721e-84
1.126349999999998772e+02 9.533203728012264132e-84
1.128487499999998818e+02 1.439438419684142326e-83
1.130624999999998863e+02 1.795126876813218168e-83
1.132762499999998909e+02 1.880888354953733594e-83
1.134899999999998954e+02 1.561482492114046359e-83
1.137037499999999000e+02 7.397102045307195835e-84
1.139174999999998761e+02 -6.044766165645351965e-84
1.141312499999998806e+02 -2.376564117897897999e-83
1.143449999999998852e+02 -4.341352315012287987e-83
1.145587499999998897e+02 -6.119068036437564238e-83
1.147724999999998943e+02 -7.213995273713110760e-83
1.149862499999998988e+02 -7.082507484705266457e-83
1.151999999999998749e+02 -5.240931524837561019e-83
1.154137499999998795e+02 -1.404415955203305517e-83
1.156274999999998840e+02 4.363050046389330073e-83
1.158412499999998886e+02 1.151823293825257203e-82
1.160549999999998931e+02 1.896678941939890094e-82
1.162687499999998977e+02 2.509118565625500702e-82
1.164824999999999022e+02 2.791316876537667348e-82
1.166962499999998784e+02 2.540817616318650403e-82
1.169099999999998829e+02 1.596040433363393062e-82
1.171237499999998875e+02 -1.090544023317099986e-83
1.173374999999998920e+02 -2.490226471340513233e-82
1.175512499999998965e+02 -5.270967853767778164e-82
1.177649999999999011e+02 -7.968346593820241414e-82
1.179787499999998772e+02 -9.921377467099269383e-82
1.181924999999998818e+02 -1.037261702620274093e-81
1.184062499999998863e+02 -8.605534722377797021e-82
1.186199999999998909e+02 -4.128157910258426034e-82
1.188337499999998954e+02 3.121218347836818590e-82
1.190474999999999000e+02 1.258543564356527821e-81
1.192612499999998761e+02 2.296798604026668640e-81
1.194749999999998806e+02 3.223624384769105025e-81
1.196887499999998852e+02 3.779745294420494668e-81
1.199024999999998897e+02 3.687580641478044743e-81
1.201162499999998943e+02 2.708332290068802542e-81
1.203299999999998988e+02 7.129048229115471952e-82
1.205437499999998749e+02 -2.244332083689036978e-81
1.207574999999998795e+02 -5.864972191348343075e-81
1.209712499999998840e+02 -9.578527980810354033e-81
1.211849999999998886e+02 -1.256634812878714093e-80
1.213987499999998931e+02 -1.385253746852722193e-80
1.216124999999998977e+02 -1.246728034523028640e-80
1.218262499999998738e+02 -7.673266830985942389e-81
1.220399999999998784e+02 7.724047278553367710e-82
1.222537499999998829e+02 1.236757678512044987e-80
1.224674999999998875e+02 2.568809105074036835e-80
1.226812499999998920e+02 3.835438948692290729e-80
1.228949999999998965e+02 4.720553172085178593e-80
1.231087499999998727e+02 4.872139502107463311e-80
1.233224999999998772e+02 3.969226306613808204e-80
1.235362499999998818e+02 1.807748190717256139e-80
1.237499999999998863e+02 -1.607147379024360124e-80
1.239637499999998909e+02 -5.981134733739998342e-80
1.241774999999998954e+02 -1.068628157959660404e-79
1.243912499999998715e+02 -1.477610726297684716e-79
1.246049999999998761e+02 -1.707958990859936706e-79
1.248187499999998806e+02 -1.638288010476765714e-79
1.250324999999998852e+02 -1.169064826982643972e-79
1.252462499999998897e+02 -2.537579548011463192e-80
1.254599999999998943e+02 1.070227395165184081e-79