2.024999999999579359e-01 3.400862315018763902e-103
4.162499999999482725e-01 2.701219706283287587e-103
6.299999999999528200e-01 6.580294220501052497e-105
8.437499999999573674e-01 -5.250720994159088876e-103
1.057499999999947704e+00 -1.352025637436171738e-102
1.271249999999952252e+00 -2.395368175743540560e-102
1.484999999999956799e+00 -3.401957910143967697e-102
1.698749999999947136e+00 -3.888469170944836311e-102
1.912499999999951683e+00 -3.134196572379608101e-102
2.126249999999956231e+00 -2.721142502808450230e-103
2.339999999999946567e+00 5.469245590683123736e-102
2.553749999999951115e+00 1.433776165186359464e-101
2.767499999999955662e+00 2.545683517337747001e-101
2.981249999999945999e+00 3.615243556363228043e-101
3.194999999999950546e+00 4.143256766711142703e-101
3.408749999999955094e+00 3.398283442068337667e-101
3.622499999999945430e+00 5.150577612718220288e-102
3.836249999999949978e+00 -5.260509701272325750e-101
4.049999999999954525e+00 -1.415136377587964128e-100
4.263749999999944862e+00 -2.527451293773458118e-100
4.477499999999949409e+00 -3.601444260055810614e-100
4.691249999999953957e+00 -4.156034433804966726e-100
4.904999999999944293e+00 -3.494397777665901789e-100
5.118749999999948841e+00 -8.002069841905944098e-101
5.332499999999953388e+00 4.632506468670519583e-100
5.546249999999943725e+00 1.301383959179555251e-99
5.759999999999948272e+00 2.353931418541793049e-99
5.973749999999952820e+00 3.383367400152315734e-99
6.187499999999943157e+00 3.954948748644846057e-99
6.401249999999947704e+00 3.441364243059192207e-99
6.614999999999952252e+00 1.108298312594157619e-99
6.828749999999942588e+00 -3.684825469504373481e-99
7.042499999999947136e+00 -1.115161683252664252e-98
7.256249999999951683e+00 -2.063349939565611212e-98
7.469999999999942020e+00 -3.012386613647782517e-98
7.683749999999946567e+00 -3.592200592493298585e-98
7.897499999999951115e+00 -3.265846547395635972e-98
8.111249999999941451e+00 -1.398747650782400317e-98
8.324999999999945999e+00 2.577392855047034847e-98
8.538749999999950546e+00 8.891639309727804103e-98
8.752499999999940883e+00 1.706743740918173188e-97
8.966249999999945430e+00 2.552645038625390002e-97
9.179999999999949978e+00 3.128860682544219270e-97
9.393749999999940314e+00 2.995886440597018274e-97
9.607499999999944862e+00 1.623551481012108915e-97
9.821249999999949409e+00 -1.483335157176241851e-97
1.003499999999993975e+01 -6.571741626657455289e-97
1.024874999999994429e+01 -1.334916525564928314e-96
1.046249999999994884e+01 -2.066034226266846125e-96
1.067624999999993918e+01 -2.622581443580570660e-96
1.088999999999994373e+01 -2.658723491351731268e-96
1.110374999999994827e+01 -1.744214048008845259e-96
1.131749999999993861e+01 5.448261640795684548e-97
1.153124999999994316e+01 4.465985243415997567e-96
1.174499999999994770e+01 9.885490630012873156e-96
1.195874999999993804e+01 1.601866876946626535e-95
1.217249999999994259e+01 2.120288227855148215e-95
1.238624999999994714e+01 2.281016073377971264e-95
1.259999999999993747e+01 1.743966933290036215e-95
1.281374999999994202e+01 1.538328710854981691e-96
1.302749999999994657e+01 -2.744067352435937679e-95
1.324124999999995111e+01 -6.933929454891619616e-95
1.345499999999994145e+01 -1.192451254874121241e-94
1.366874999999994600e+01 -1.655516169586924411e-94
1.388249999999995055e+01 -1.889054419380346601e-94
1.409624999999994088e+01 -1.631024294941174482e-94
1.430999999999994543e+01 -5.911842481457093387e-95
1.452374999999994998e+01 1.467399809002066359e-94
1.473749999999994031e+01 4.602875703061065187e-94
1.495124999999994486e+01 8.535902388995204134e-94
1.516499999999994941e+01 1.248858140994959219e-93
1.537874999999993975e+01 1.507648170078643586e-93
1.559249999999994429e+01 1.433298226550951550e-93
1.580624999999994884e+01 7.958944994198533508e-94
1.601999999999993918e+01 -6.118077398165858940e-94
1.623374999999994373e+01 -2.883653158313908046e-93
1.644749999999994827e+01 -5.880132417755841291e-93
1.666124999999993861e+01 -9.099479564875663965e-93
1.687499999999994316e+01 -1.157878038856769044e-92
1.708874999999994770e+01 -1.188309427268524561e-92
1.730249999999993804e+01 -8.253432664164008571e-93
1.751624999999994259e+01 1.018266974711728339e-93
1.772999999999994714e+01 1.694815234511137706e-92
1.794374999999993747e+01 3.897959386411096337e-92
1.815749999999994202e+01 6.399373677946952043e-92
1.837124999999994657e+01 8.548040865775946635e-92
1.858499999999993690e+01 9.328362954587868735e-92
1.879874999999994145e+01 7.444258918075655267e-92
1.901249999999994600e+01 1.564964084137051934e-92
1.922624999999993634e+01 -9.233788912686030455e-92
1.943999999999994088e+01 -2.484376651780204782e-91
1.965374999999994543e+01 -4.339730787419565841e-91
1.986749999999993577e+01 -6.062118790625070373e-91
2.008124999999994031e+01 -6.955843663177875889e-91
2.029499999999994486e+01 -6.102641317921749077e-91
2.050874999999993520e+01 -2.518951188321122308e-91
2.072249999999993975e+01 4.549162321704997622e-91
2.093624999999994429e+01 1.519664167906183933e-90
2.114999999999993463e+01 2.834841391165922853e-90
2.136374999999993918e+01 4.128634005745979092e-90
2.157749999999994373e+01 4.940664011461972177e-90
2.179124999999993406e+01 4.645783968062533861e-90
2.200499999999993861e+01 2.552025558564186095e-90
2.221874999999994316e+01 -1.908459030613947453e-90
2.243249999999993349e+01 -8.895628557548593762e-90
2.264624999999993804e+01 -1.781750859186781080e-89
2.285999999999994259e+01 -2.700228544401780091e-89
2.307374999999993292e+01 -3.351102834256465488e-89
2.328749999999993747e+01 -3.325401793154923889e-89
2.350124999999994202e+01 -2.158250693518510921e-89
2.371499999999993236e+01 5.516665195865454207e-90
2.392874999999993690e+01 4.961522654443132579e-89
2.414249999999994145e+01 1.076219027584388666e-88
2.435624999999993179e+01 1.696171770562537118e-88
2.456999999999993634e+01 2.175200919024199061e-88
2.478374999999994088e+01 2.256077712884112838e-88
2.499749999999993122e+01 1.639709982544184453e-88
2.521124999999993577e+01 5.725191039218644330e-90
2.542499999999994031e+01 -2.619238997957957156e-88
2.563874999999993065e+01 -6.238966700077881219e-88
2.585249999999993520e+01 -1.023552078100634573e-87
2.606624999999993975e+01 -1.353751987408922868e-87
2.627999999999994429e+01 -1.458827989878012957e-87
2.649374999999993463e+01 -1.154015397093389495e-87
2.670749999999993918e+01 -2.674044692932611467e-88
2.692124999999994373e+01 1.294737201219279065e-87
2.713499999999993406e+01 3.465636883840255565e-87
2.734874999999993861e+01 5.934843253622399566e-87
2.756249999999994316e+01 8.091136734229717781e-87
2.777624999999993349e+01 9.027247224372850178e-87
2.798999999999993804e+01 7.644737847652792669e-87
2.820374999999994259e+01 2.889080493844323678e-87
2.841749999999993292e+01 -5.878587244205463319e-87
2.863124999999993747e+01 -1.840717184654457706e-86
2.884499999999994202e+01 -3.306815185814331666e-86
2.905874999999993236e+01 -4.650513015987654545e-86
2.927249999999993690e+01 -5.362077350164460156e-86
2.948624999999994145e+01 -4.811790934500433760e-86
2.969999999999993179e+01 -2.376783074256455052e-86
2.991374999999993634e+01 2.354813874594233104e-86
3.012749999999994088e+01 9.319845833487951713e-86
3.034124999999993122e+01 1.770380555549047295e-85
3.055499999999993577e+01 2.573306777936674652e-85
3.076874999999994031e+01 3.064441065884926004e-85
3.098249999999993065e+01 2.895060642041999958e-85
3.119624999999993520e+01 1.709910954181908678e-85
3.140999999999993975e+01 -7.445050482485632587e-86
3.162374999999993008e+01 -4.477683968191778301e-85
3.183749999999993463e+01 -9.103276787040524361e-85
3.205124999999993918e+01 -1.371973074460171363e-84
3.226499999999992951e+01 -1.688059142475756731e-84
3.247874999999993406e+01 -1.671771827854618977e-84
3.269249999999993861e+01 -1.127046932965998786e-84
3.290624999999992895e+01 9.590107959025137171e-86
3.311999999999993349e+01 2.026301343020937039e-84
3.333374999999993804e+01 4.491800996990264687e-84
3.354749999999992838e+01 7.051884324956562449e-84
3.376124999999993292e+01 8.974921778660863402e-84
3.397499999999993747e+01 9.291639519846623427e-84
3.418874999999992781e+01 6.953342965543647269e-84
3.440249999999993236e+01 1.107406762051154452e-84
3.461624999999993690e+01 -8.526328458409330098e-84
3.482999999999992724e+01 -2.123515840610438301e-83
3.504374999999993179e+01 -3.495247234053932510e-83
3.525749999999993634e+01 -4.610088048221271448e-83
3.547124999999992667e+01 -4.980521293314621044e-83
3.568499999999993122e+01 -4.062325511717493748e-83
3.589874999999993577e+01 -1.386892347674432752e-83
3.611249999999992610e+01 3.253500222443827034e-83
3.632624999999993065e+01 9.593407713219270131e-83
3.653999999999993520e+01 1.670379955432123682e-82
3.675374999999992554e+01 2.289342521969001038e-82
3.696749999999993008e+01 2.578366104703444997e-82
3.718124999999993463e+01 2.263224713784875474e-82
3.739499999999992497e+01 1.094878149753823318e-82
3.760874999999992951e+01 -1.061880104912861382e-82
3.782249999999993406e+01 -4.124043235552939348e-82
3.803624999999993861e+01 -7.692694963868710770e-82
3.824999999999994316e+01 -1.099488048056106703e-81
3.846374999999991928e+01 -1.290436088860689595e-81
3.867749999999992383e+01 -1.207881797104334940e-81
3.889124999999992838e+01 -7.237167249124766908e-82
3.910499999999993292e+01 2.427955107268726545e-82
3.931874999999993747e+01 1.675026881150807105e-81
3.953249999999994202e+01 3.410228032491758838e-81
3.974624999999991815e+01 5.107075844339922393e-81
3.995999999999992269e+01 6.247998453069037111e-81
4.017374999999992724e+01 6.194547736587039038e-81
4.038749999999993179e+01 4.308388435306757211e-81
4.060124999999993634e+01 1.379894228113103455e-82
4.081499999999994088e+01 -6.348138107497156045e-81
4.102874999999991701e+01 -1.452477789117335986e-80
4.124249999999992156e+01 -2.293722896711055111e-80
4.145624999999992610e+01 -2.927714150522155824e-80
4.166999999999993065e+01 -3.059365259938572842e-80
4.188374999999993520e+01 -2.380418046427785092e-80
4.209749999999993975e+01 -6.516264259876473709e-81
4.231124999999991587e+01 2.191255388232360324e-80
4.252499999999992042e+01 5.925762523520795783e-80
4.273874999999992497e+01 9.954589814987178456e-80
4.295249999999992951e+01 1.327897409135551821e-79
4.316624999999993406e+01 1.457368880914484719e-79
4.337999999999993861e+01 1.239545005703615662e-79
4.359374999999991473e+01 5.534695482483536670e-80
4.380749999999991928e+01 -6.515412434665071550e-80
4.402124999999992383e+01 -2.304627590881264434e-79
4.423499999999992838e+01 -4.170175556297887101e-79
4.444874999999993292e+01 -5.829232781727672742e-79
4.466249999999993747e+01 -6.703628309041395048e-79
4.487624999999991360e+01 -6.137977007329340409e-79
4.508999999999991815e+01 -3.546009828235001041e-79
4.530374999999992269e+01 1.387397205489191148e-79
4.551749999999992724e+01 8.477437242320956546e-79
4.573124999999993179e+01 1.683519401211188476e-78
4.594499999999993634e+01 2.475862414704393580e-78
4.615874999999991246e+01 2.979809024736353601e-78
4.637249999999991701e+01 2.906655343577752327e-78
4.658624999999992156e+01 1.983062939402349188e-78
4.679999999999992610e+01 3.574265858970303035e-80
4.701374999999993065e+01 -2.909291952218881319e-78
4.722749999999993520e+01 -6.533558159467607653e-78
4.744124999999993975e+01 -1.016831393198585116e-77
4.765499999999991587e+01 -1.280609982933387964e-77
4.786874999999992042e+01 -1.321297429186957848e-77
4.808249999999992497e+01 -1.016007943546355334e-77
4.829624999999992951e+01 -2.768897810896378011e-78
4.850999999999993406e+01 9.070127198630657261e-78
4.872374999999993861e+01 2.428639220229061493e-77
4.893749999999991473e+01 4.034382277962448532e-77
4.915124999999991928e+01 5.322287922258928292e-77
4.936499999999992383e+01 5.780591490925704790e-77
4.957874999999992838e+01 4.875587127909429442e-77
4.979249999999993292e+01 2.188471269364095566e-77
5.000624999999993747e+01 -2.412998085024846949e-77
5.021999999999991360e+01 -8.598717320904049756e-77
5.043374999999991815e+01 -1.544299415864178671e-76
5.064749999999992269e+01 -2.139121031048108513e-76
5.086124999999992724e+01 -2.438367114995511990e-76
5.107499999999993179e+01 -2.217792401710032096e-76
5.128874999999993634e+01 -1.287575845529411373e-76
5.150249999999991246e+01 4.392387510752812972e-77
5.171624999999991701e+01 2.873873439337912101e-76
5.192999999999992156e+01 5.692414055357894524e-76
5.214374999999992610e+01 8.312536625357734800e-76
5.235749999999993065e+01 9.929799956715458900e-76
5.257124999999993520e+01 9.631643304139241342e-76
5.278499999999991132e+01 6.594467254220304186e-76
5.299874999999991587e+01 3.489752262481421891e-77
5.321249999999992042e+01 -8.926608993854995369e-76
5.342624999999992497e+01 -2.015223944371070906e-75
5.363999999999992951e+01 -3.121786865885396974e-75
5.385374999999993406e+01 -3.907467022516424447e-75
5.406749999999991019e+01 -4.012240543816145328e-75
5.428124999999991473e+01 -3.092464798136125090e-75
5.449499999999991928e+01 -9.209266255647459696e-76
5.470874999999992383e+01 2.498520874904279811e-75
5.492249999999992838e+01 6.825987628155812263e-75
5.513624999999993292e+01 1.132294521041582644e-74
5.534999999999990905e+01 1.486813987456416827e-74
5.556374999999991360e+01 1.608340223960833264e-74
5.577749999999991815e+01 1.358535305253088001e-74
5.599124999999992269e+01 6.352374753136903376e-75
5.620499999999992724e+01 -5.839524841315999512e-75
5.641874999999993179e+01 -2.199763879292893544e-74
5.663249999999990791e+01 -3.962984564392855869e-74
5.684624999999991246e+01 -5.473475748892769540e-74
5.705999999999991701e+01 -6.218913734735546705e-74
5.727374999999992156e+01 -5.660621934537061472e-74
5.748749999999992610e+01 -3.364560632553442778e-74
5.770124999999993065e+01 8.373474997105455697e-75
5.791499999999990678e+01 6.684998323541633255e-74
5.812874999999991132e+01 1.336964306210428186e-73
5.834249999999991587e+01 1.950548202346610046e-73
5.855624999999992042e+01 2.324124214217428386e-73
5.876999999999992497e+01 2.254352096582388268e-73
5.898374999999992951e+01 1.565206031942578063e-73
5.919749999999990564e+01 1.661692365151998781e-74
5.941124999999991019e+01 -1.886745207027822026e-73
5.962499999999991473e+01 -4.342002197841279578e-73
5.983874999999991928e+01 -6.733690317192703581e-73
6.005249999999992383e+01 -8.410789611582799174e-73
6.026624999999992838e+01 -8.627621077553291475e-73
6.047999999999990450e+01 -6.698053578662056753e-73
6.069374999999990905e+01 -2.200385675481504960e-73
6.090749999999991360e+01 4.799096779897464403e-73
6.112124999999991815e+01 1.355446866655152083e-72
6.133499999999992269e+01 2.254421468374019320e-72
6.154874999999992724e+01 2.953686255587019922e-72
6.176249999999993179e+01 3.186977260101676689e-72
6.197624999999990791e+01 2.695875533536413061e-72
6.218999999999991246e+01 1.300330601450923890e-72
6.240374999999991701e+01 -1.021377157591097170e-72
6.261749999999992156e+01 -4.060097151556077548e-72
6.283124999999992610e+01 -7.332724266788261518e-72
6.304499999999993065e+01 -1.009219027461998022e-71
6.325874999999990678e+01 -1.141024000521492839e-71
6.347249999999991132e+01 -1.034200610259754894e-71
6.368624999999991587e+01 -6.163870786041103231e-72
6.389999999999992042e+01 1.346533755467771777e-72
6.411374999999992497e+01 1.164331238447550059e-71
6.432749999999992951e+01 2.323303452246733711e-71
6.454124999999990564e+01 3.366630612888660094e-71
6.475499999999991019e+01 3.977349994322316163e-71
6.496874999999991473e+01 3.818503701390978221e-71
6.518249999999991928e+01 2.611952476382001112e-71
6.539624999999992383e+01 2.346625206538220821e-72
6.560999999999992838e+01 -3.185239766770726738e-71
6.582374999999990450e+01 -7.197622008907390455e-71
6.603749999999990905e+01 -1.101348556315315686e-70
6.625124999999991360e+01 -1.356877433804474787e-70
6.646499999999991815e+01 -1.368566150163107587e-70
6.667874999999992269e+01 -1.032981711197867081e-70
6.689249999999992724e+01 -2.936693034135843238e-71
6.710624999999990337e+01 8.249117186504766424e-71
6.731999999999990791e+01 2.190381694429518834e-70
6.753374999999991246e+01 3.552201000960221773e-70
6.774749999999991701e+01 4.557745938771196679e-70
6.796124999999992156e+01 4.801373799498372187e-70
6.817499999999992610e+01 3.907368060095203521e-70
6.838874999999990223e+01 1.639265724150822029e-70
6.860249999999990678e+01 -1.981828503380555724e-70
6.881624999999991132e+01 -6.576805015914121568e-70
6.902999999999991587e+01 -1.135927238736144697e-69
6.924374999999992042e+01 -1.517118804452099695e-69
6.945749999999992497e+01 -1.662909168859569898e-69
6.967124999999990109e+01 -1.438865459103044996e-69
6.988499999999990564e+01 -7.507911661175609681e-70
7.009874999999991019e+01 4.143959420975055635e-70
7.031249999999991473e+01 1.951900320842878022e-69
7.052624999999991928e+01 3.617568310366800101e-69
7.073999999999992383e+01 5.033510199581118540e-69
7.095374999999989996e+01 5.730521176339916797e-69
7.116749999999990450e+01 5.231511828804695605e-69
7.138124999999990905e+01 3.171341899570101285e-69
7.159499999999991360e+01 -5.627982914207744799e-70
7.180874999999991815e+01 -5.698107125208073581e-69
7.202249999999992269e+01 -1.148717735215442063e-68
7.223624999999989882e+01 -1.670439123514325636e-68
7.244999999999990337e+01 -1.976380461004568901e-68
7.266374999999990791e+01 -1.897832472046511176e-68
7.287749999999991246e+01 -1.295194528625410728e-68
7.309124999999991701e+01 -1.059366681441270612e-69
7.330499999999992156e+01 1.607379627939650814e-68
7.351874999999989768e+01 3.621286303308482075e-68
7.373249999999990223e+01 5.541992249399992162e-68
7.394624999999990678e+01 6.835663718978531098e-68
7.415999999999991132e+01 6.907055195817541947e-68
7.437374999999991587e+01 5.226396160349379420e-68
7.458749999999992042e+01 1.492128904365696884e-68
7.480124999999992497e+01 -4.197117573096237416e-68
7.501499999999990109e+01 -1.120122402991476641e-67
7.522874999999990564e+01 -1.827649407864091498e-67
7.544249999999991019e+01 -2.364123987008145951e-67
7.565624999999991473e+01 -2.520513699154905861e-67
7.586999999999991928e+01 -2.097192435376020825e-67
7.608374999999992383e+01 -9.585236466820861348e-68
7.629749999999989996e+01 9.061117360640523602e-68
7.651124999999990450e+01 3.327565332619153058e-67
7.672499999999990905e+01 5.924820165013846945e-67
7.693874999999991360e+01 8.112948576879061064e-67
7.715249999999991815e+01 9.165649291121203181e-67
7.736624999999992269e+01 8.339187069168994595e-67
7.757999999999989882e+01 5.052018774426522096e-67
7.779374999999990337e+01 -9.018422089919606516e-68
7.800749999999990791e+01 -9.145064301174956752e-67
7.822124999999991246e+01 -1.856889401811536753e-66
7.843499999999991701e+01 -2.730607347420790015e-66
7.864874999999992156e+01 -3.288123901238530679e-66
7.886249999999989768e+01 -3.257441391422606082e-66
7.907624999999990223e+01 -2.399510492691293893e-66
7.928999999999990678e+01 -5.811550414009188986e-67
7.950374999999991132e+01 2.148114837479915799e-66
7.971749999999991587e+01 5.492721279914771078e-66
7.993124999999992042e+01 8.882143654205276759e-66
8.014499999999989654e+01 1.149774302073948606e-65
8.035874999999990109e+01 1.237146895820796498e-65
8.057249999999990564e+01 1.056165133807905148e-65
8.078624999999991019e+01 5.394400963291217716e-66
8.099999999999991473e+01 -3.261472355464268057e-66
8.121374999999991928e+01 -1.473925048451296827e-65
8.142749999999989541e+01 -2.740878221480912944e-65
8.164124999999989996e+01 -3.867718392729129984e-65
8.185499999999990450e+01 -4.522303391946383352e-65
8.206874999999990905e+01 -4.350212716417607102e-65
8.228249999999991360e+01 -3.051279569350105177e-65
8.249624999999991815e+01 -4.741576694958583941e-66
8.270999999999989427e+01 3.286510482894131717e-65
8.292374999999989882e+01 7.812575747204953608e-65
8.313749999999990337e+01 1.233098960848061321e-64
8.335124999999990791e+01 1.575460254590224200e-64
8.356499999999991246e+01 1.681444128675756821e-64
8.377874999999991701e+01 1.428869418440607963e-64
8.399249999999989313e+01 7.312750674745593949e-65
8.420624999999989768e+01 -4.270818178933887442e-65
8.441999999999990223e+01 -1.958927292229006598e-64
8.463374999999990678e+01 -3.653088203801480851e-64
8.484749999999991132e+01 -5.174511188703347706e-64
8.506124999999991587e+01 -6.093506823229431882e-64
8.527499999999989200e+01 -5.948967427430670957e-64
8.548874999999989654e+01 -4.344209477652120061e-64
8.570249999999990109e+01 -1.065911596345833854e-64
8.591624999999990564e+01 3.792545791478745198e-64
8.612999999999991019e+01 9.730428523644144726e-64
8.634374999999991473e+01 1.579414320279592050e-63
8.655749999999989086e+01 2.061925119790352434e-63
8.677124999999989541e+01 2.258473102247021326e-63
8.698499999999989996e+01 2.008784998948458272e-63
8.719874999999990450e+01 1.192331848000604625e-63
8.741249999999990905e+01 -2.280122844730264098e-64
8.762624999999991360e+01 -2.164410090858466058e-63
8.783999999999991815e+01 -4.375014769183789102e-63
8.805374999999989427e+01 -6.459025498652262354e-63
8.826749999999989882e+01 -7.886392929205837062e-63
8.848124999999990337e+01 -8.068857932631983037e-63
8.869499999999990791e+01 -6.472115109723186839e-63
8.890874999999991246e+01 -2.759389081762492807e-63
8.912249999999991701e+01 3.054232403572496529e-63
8.933624999999989313e+01 1.046780121849294895e-62
8.954999999999989768e+01 1.841929394479956864e-62
8.976374999999990223e+01 2.530904176184104856e-62
8.997749999999990678e+01 2.915455494126368548e-62
9.019124999999991132e+01 2.789221300989908841e-62
9.040499999999991587e+01 1.981389521388494659e-62
9.061874999999989200e+01 4.091472687784776195e-63
9.083249999999989654e+01 -1.869581426970095070e-62
9.104624999999990109e+01 -4.614918377321962198e-62
9.125999999999990564e+01 -7.389046962470231339e-62
9.147374999999991019e+01 -9.578706511504393134e-62
9.168749999999991473e+01 -1.046578300757696318e-61
9.190124999999989086e+01 -9.348447694939240279e-62
9.211499999999989541e+01 -5.704868180991551918e-62
9.232874999999989996e+01 6.210573585648129254e-63
9.254249999999990450e+01 9.245199840722703844e-62
9.275624999999990905e+01 1.912323358389826236e-61
9.296999999999991360e+01 2.853263906958612562e-61
9.318374999999988972e+01 3.519919269365759096e-61
9.339749999999989427e+01 3.659421272364700374e-61
9.361124999999989882e+01 3.040064028748927492e-61
9.382499999999990337e+01 1.510773283107792557e-61
9.403874999999990791e+01 -9.349502599386343345e-62
9.425249999999991246e+01 -4.103128857751676888e-61
9.446624999999988859e+01 -7.566847938947946226e-61
9.467999999999989313e+01 -1.067318227318064354e-60
9.489374999999989768e+01 -1.260266350169002932e-60
9.510749999999990223e+01 -1.248771156771856185e-60
9.532124999999990678e+01 -9.585808988472279836e-61
9.553499999999991132e+01 -3.489554075845535726e-61
9.574874999999988745e+01 5.659003763446952900e-61
9.596249999999989200e+01 1.699531687463226870e-60
9.617624999999989654e+01 2.885385947062364586e-60
9.638999999999990109e+01 3.883631287488010191e-60
9.660374999999990564e+01 4.406545088040924633e-60
9.681749999999991019e+01 4.163734796917284213e-60
9.703124999999988631e+01 2.924570366095495932e-60
9.724499999999989086e+01 5.904826890458082225e-61
9.745874999999989541e+01 -2.735055065519404193e-60
9.767249999999989996e+01 -6.694978145324039694e-60
9.788624999999990450e+01 -1.066346593487756451e-59
9.809999999999990905e+01 -1.378370124000771554e-59
9.831374999999988518e+01 -1.506955918955049589e-59
9.852749999999988972e+01 -1.357230378705979713e-59
9.874124999999989427e+01 -8.599628445500686452e-60
9.895499999999989882e+01 4.155667861650347405e-62
9.916874999999990337e+01 1.182263323129629387e-59
9.938249999999990791e+01 2.534654789185640500e-59
9.959624999999988404e+01 3.833580848546725217e-59
9.980999999999988859e+01 4.780612529687922983e-59
1.000237499999998931e+02 5.045469565150666667e-59
1.002374999999998977e+02 4.325612688422852648e-59
1.004512499999999022e+02 2.421170353391072615e-59
1.006649999999999068e+02 -6.854648037536957596e-60
1.008787499999998829e+02 -4.760824527383316497e-59
1.010924999999998875e+02 -9.280947538936167580e-59
1.013062499999998920e+02 -1.344022717547376155e-58
1.015199999999998965e+02 -1.622369107628858666e-58
1.017337499999999011e+02 -1.654961447640354566e-58
1.019474999999999056e+02 -1.347672016465519569e-58
1.021612499999999102e+02 -6.454370255639016409e-59
1.023749999999998863e+02 4.422608383242399475e-59
1.025887499999998909e+02 1.820722650795067213e-58
1.028024999999998954e+02 3.300266071871837803e-58
1.030162499999999000e+02 4.603245777857370835e-58
1.032299999999999045e+02 5.392214125939618548e-58
1.034437499999999091e+02 5.320582800650772241e-58
1.036574999999998852e+02 4.102829621661968144e-58
1.038712499999998897e+02 1.596117594659767381e-58
1.040849999999998943e+02 -2.120037063430437773e-58
1.042987499999998988e+02 -6.683599431086650314e-58
1.045124999999999034e+02 -1.142880247757095163e-57
1.047262499999999079e+02 -1.542175648724243312e-57
1.049399999999998840e+02 -1.756484483856200359e-57
1.051537499999998886e+02 -1.677141280540795583e-57
1.053674999999998931e+02 -1.219791932597633744e-57
1.055812499999998977e+02 -3.504225036789315255e-58
1.057949999999999022e+02 8.903207205251190053e-58
1.060087499999999068e+02 2.370215665398804867e-57
1.062224999999998829e+02 3.862017781175973858e-57
1.064362499999998875e+02 5.058761834238770912e-57
1.066499999999998920e+02 5.610931401611038884e-57
1.068637499999998965e+02 5.185073208179606352e-57
1.070774999999999011e+02 3.538792850197740205e-57
1.072912499999999056e+02 6.019384893562827985e-58
1.075049999999998818e+02 -3.450925259803796949e-57
1.077187499999998863e+02 -8.154800370452724810e-57
1.079324999999998909e+02 -1.275375973882652770e-56
1.081462499999998954e+02 -1.626082946491098969e-56
1.083599999999999000e+02 -1.758583385212730020e-56
1.085737499999999045e+02 -1.572712887549981708e-56
1.087874999999998806e+02 -1.000849501671009954e-56
1.090012499999998852e+02 -3.268862044334511235e-58
1.092149999999998897e+02 1.263681286948325873e-56
1.094287499999998943e+02 2.729989449095953555e-56
1.096424999999998988e+02 4.120770566365918791e-56
1.098562499999999034e+02 5.125350695381369655e-56
1.100699999999998795e+02 5.410492919790421145e-56
1.102837499999998840e+02 4.681627978584616503e-56
1.104974999999998886e+02 2.756075867471046794e-56
1.107112499999998931e+02 -3.629528973219445282e-57
1.109249999999998977e+02 -4.426577686850129602e-56
1.111387499999999022e+02 -8.911602432586188068e-56
1.113524999999998784e+02 -1.303895023879638145e-55
1.115662499999998829e+02 -1.585055521495619488e-55
1.117799999999998875e+02 -1.634770990271179441e-55
1.119937499999998920e+02 -1.368218959082523400e-55
1.122074999999998965e+02 -7.377856515749574182e-56
1.124212499999999011e+02 2.452923746383468193e-56
1.126349999999998772e+02 1.494401285861875104e-55
1.128487499999998818e+02 2.841145595703153530e-55
1.130624999999998863e+02 4.043589181694014523e-55
1.132762499999998909e+02 4.812099123331439902e-55
1.134899999999998954e+02 4.853085144618951000e-55
1.137037499999999000e+02 3.927364562433721003e-55
1.139174999999998761e+02 1.915869834990091244e-55
1.141312499999998806e+02 -1.118366284065274327e-55
1.143449999999998852e+02 -4.885718793353950601e-55
1.145587499999998897e+02 -8.857483798215677581e-55
1.147724999999998943e+02 -1.229792397607272869e-54
1.149862499999998988e+02 -1.434822024263411501e-54
1.151999999999998749e+02 -1.416145342134311578e-54
1.154137499999998795e+02 -1.107711538278121670e-54
1.156274999999998840e+02 -4.812081070367391471e-55
1.158412499999998886e+02 4.365476968693895838e-55
1.160549999999998931e+02 1.551961511472672924e-54
1.162687499999998977e+02 2.702875880589877623e-54
1.164824999999999022e+02 3.670032440174603492e-54
1.166962499999998784e+02 4.203530518604188209e-54
1.169099999999998829e+02 4.063539133543069957e-54
1.171237499999998875e+02 3.071420563994368234e-54
1.173374999999998920e+02 1.164159723626761562e-54
1.175512499999998965e+02 -1.557826125472013265e-54
1.177649999999999011e+02 -4.801095014457360375e-54
1.179787499999998772e+02 -8.079245018676241200e-54
1.181924999999998818e+02 -1.075156975518382609e-53
1.184062499999998863e+02 -1.210418467314316537e-53
1.186199999999998909e+02 -1.147015785049142584e-53
1.188337499999998954e+02 -8.376332438255549721e-54
1.190474999999999000e+02 -2.695511255918065351e-54
1.192612499999998761e+02 5.224753522060150639e-54
1.194749999999998806e+02 1.448940039121267421e-53
1.196887499999998852e+02 2.367026364306316086e-53
1.199024999999998897e+02 3.093061514631306442e-53
1.201162499999998943e+02 3.426765615322858577e-53
1.203299999999998988e+02 3.185959426665580771e-53
1.205437499999998749e+02 2.247920704317606067e-53
1.207574999999998795e+02 5.911400630821964538e-54
1.209712499999998840e+02 -1.670681658704696821e-53
1.211849999999998886e+02 -4.271395995289231252e-53
1.213987499999998931e+02 -6.800231300026852333e-53
1.216124999999998977e+02 -8.740429959200107843e-53
1.218262499999998738e+02 -9.540018241948931434e-53
1.220399999999998784e+02 -8.710054840719522968e-53
1.222537499999998829e+02 -5.938928813134411234e-53
1.224674999999998875e+02 -1.204814123450007530e-53
1.226812499999998920e+02 5.136393329245638295e-53
1.228949999999998965e+02 1.231200118944442356e-52
1.231087499999998727e+02 1.916399532095354199e-52
1.233224999999998772e+02 2.426505514577910263e-52
1.235362499999998818e+02 2.612045757169716213e-52
1.237499999999998863e+02 2.344071827147962047e-52
1.239637499999998909e+02 1.545162803322252840e-52
1.241774999999998954e+02 2.191567076507546519e-53
1.243912499999998715e+02 -1.526567538715592192e-52
1.246049999999998761e+02 -3.472715279139766812e-52
1.248187499999998806e+02 -5.299157893588303957e-52
1.250324999999998852e+02 -6.618769970057726370e-52
1.252462499999998897e+02 -7.033794696741110976e-52
1.254599999999998943e+02 -6.210045835101460068e-52
1.256737499999998704e+02 -3.959466354650615704e-52
1.258874999999998749e+02 -3.173001680421351691e-53
1.261012499999998795e+02 4.402625712147102942e-52
1.263149999999998840e+02 9.591310931093116279e-52
1.265287499999998886e+02 1.438059040406328081e-51
1.267424999999998931e+02 1.773924649027577557e-51