2.024999999999579359e-01 2.917066260418091066e-107
4.162499999999482725e-01 6.129446211785094903e-107
6.299999999999528200e-01 9.687161592814951068e-107
8.437499999999573674e-01 1.217865396674802664e-106
1.057499999999947704e+00 1.124541167368645854e-106
1.271249999999952252e+00 3.766831447627864886e-107
1.484999999999956799e+00 -1.338898778494839451e-106
1.698749999999947136e+00 -4.183957046324912032e-106
1.912499999999951683e+00 -7.934605967506251378e-106
2.126249999999956231e+00 -1.169693428527260286e-105
2.339999999999946567e+00 -1.365980026910970234e-105
2.553749999999951115e+00 -1.104156473409842995e-105
2.767499999999955662e+00 -4.502472589276736315e-107
2.981249999999945999e+00 2.110398317362212403e-105
3.194999999999950546e+00 5.438067974593896827e-105
3.408749999999955094e+00 9.532947087068719774e-105
3.622499999999945430e+00 1.322420108316574285e-104
3.836249999999949978e+00 1.437167907808955801e-104
4.049999999999954525e+00 9.918664120898370661e-105
4.263749999999944862e+00 -3.574813030498005910e-105
4.477499999999949409e+00 -2.870187625164360039e-104
4.691249999999953957e+00 -6.518213221737787253e-104
4.904999999999944293e+00 -1.072123585910174372e-103
5.118749999999948841e+00 -1.408218613492980677e-103
5.332499999999953388e+00 -1.424534094693793189e-103
5.546249999999943725e+00 -8.058373429848466327e-104
5.759999999999948272e+00 7.748168463414236942e-104
5.973749999999952820e+00 3.518567464797945547e-103
6.187499999999943157e+00 7.290728960708218087e-103
6.401249999999947704e+00 1.136541655862573690e-102
6.614999999999952252e+00 1.419763123559078196e-102
6.828749999999942588e+00 1.335068917502877247e-102
7.042499999999947136e+00 5.755251607558779375e-103
7.256249999999951683e+00 -1.150987244171600447e-102
7.469999999999942020e+00 -3.978310086176882720e-102
7.683749999999946567e+00 -7.676929375326689037e-102
7.897499999999951115e+00 -1.142175022716629104e-101
8.111249999999941451e+00 -1.361044090882238130e-101
8.324999999999945999e+00 -1.185806468628441148e-101
8.538749999999950546e+00 -3.329636912620756037e-102
8.752499999999940883e+00 1.443046538288521443e-101
8.966249999999945430e+00 4.208787639640031104e-101
9.179999999999949978e+00 7.661973319593551662e-101
9.393749999999940314e+00 1.093164712446701714e-100
9.607499999999944862e+00 1.244595632019284983e-100
9.821249999999949409e+00 9.984467538612041670e-101
1.003499999999993975e+01 1.055544739996982400e-101
1.024874999999994429e+01 -1.627691783928995894e-100
1.046249999999994884e+01 -4.207689314360146750e-100
1.067624999999993918e+01 -7.286339614027432160e-100
1.088999999999994373e+01 -9.998349952025628040e-100
1.110374999999994827e+01 -1.087628324197735559e-99
1.131749999999993861e+01 -7.946825532066891677e-100
1.153124999999994316e+01 8.757765164109362136e-101
1.174499999999994770e+01 1.700907901559663294e-99
1.195874999999993804e+01 4.003077551973598221e-99
1.217249999999994259e+01 6.627362246034462792e-99
1.238624999999994714e+01 8.757715983817474528e-99
1.259999999999993747e+01 9.085254391869373635e-99
1.281374999999994202e+01 5.933295179866145473e-99
1.302749999999994657e+01 -2.358463605315512933e-99
1.324124999999995111e+01 -1.673176241793040957e-98
1.345499999999994145e+01 -3.641363351895272867e-98
1.366874999999994600e+01 -5.779262710228426020e-98
1.388249999999995055e+01 -7.352570181675103229e-98
1.409624999999994088e+01 -7.243713860112989295e-98
1.430999999999994543e+01 -4.090992988854163762e-98
1.452374999999994998e+01 3.356532393526179693e-98
1.473749999999994031e+01 1.563581228255990376e-97
1.495124999999994486e+01 3.176089284603511575e-97
1.516499999999994941e+01 4.837038950886923682e-97
1.537874999999993975e+01 5.914394219434224564e-97
1.559249999999994429e+01 5.494535462996823525e-97
1.580624999999994884e+01 2.522586569265095971e-97
1.601999999999993918e+01 -3.885981876273043326e-97
1.623374999999994373e+01 -1.395028517654637939e-96
1.644749999999994827e+01 -2.659798522935061710e-96
1.666124999999993861e+01 -3.885605418525629701e-96
1.687499999999994316e+01 -4.551770286222607864e-96
1.708874999999994770e+01 -3.944038843302913127e-96
1.730249999999993804e+01 -1.285782116063550257e-96
1.751624999999994259e+01 4.001553425484489368e-96
1.772999999999994714e+01 1.191082311958901514e-95
1.794374999999993747e+01 2.138914071194260220e-95
1.815749999999994202e+01 2.993222037336192614e-95
1.837124999999994657e+01 3.343751653975334751e-95
1.858499999999993690e+01 2.657688815570312421e-95
1.879874999999994145e+01 3.945394723549153548e-96
1.901249999999994600e+01 -3.786691087504677502e-95
1.922624999999993634e+01 -9.738642393547260386e-95
1.943999999999994088e+01 -1.650627270907335531e-94
1.965374999999994543e+01 -2.207967976800775392e-94
1.986749999999993577e+01 -2.337175846794617825e-94
2.008124999999994031e+01 -1.660121873234549269e-94
2.029499999999994486e+01 1.760853635318030162e-95
2.050874999999993520e+01 3.342438380457531819e-94
2.072249999999993975e+01 7.623785711362035374e-94
2.093624999999994429e+01 1.221093727722329882e-93
2.114999999999993463e+01 1.556746578895752068e-93
2.136374999999993918e+01 1.547899420449342738e-93
2.157749999999994373e+01 9.401982816721271732e-94
2.179124999999993406e+01 -4.800591681871162531e-94
2.200499999999993861e+01 -2.773489311763976700e-93
2.221874999999994316e+01 -5.711092862603039903e-93
2.243249999999993349e+01 -8.648601791849466478e-93
2.264624999999993804e+01 -1.046811573269180444e-92
2.285999999999994259e+01 -9.658697318152697253e-93
2.307374999999993292e+01 -4.606252829669264436e-93
2.328749999999993747e+01 5.866434334424711820e-93
2.350124999999994202e+01 2.173515670883429846e-92
2.371499999999993236e+01 4.091543838564436906e-92
2.392874999999993690e+01 5.856930076237358720e-92
2.414249999999994145e+01 6.696044670587791343e-92
2.435624999999993179e+01 5.630475535014479266e-92
2.456999999999993634e+01 1.700188270804692023e-92
2.478374999999994088e+01 -5.661781072487292239e-92
2.499749999999993122e+01 -1.613772145754044110e-91
2.521124999999993577e+01 -2.802006233004366651e-91
2.542499999999994031e+01 -3.787365393853348771e-91
2.563874999999993065e+01 -4.061002420084887296e-91
2.585249999999993520e+01 -3.023332899630948971e-91
2.606624999999993975e+01 -1.445370329525439625e-92
2.627999999999994429e+01 4.789608423968900630e-91
2.649374999999993463e+01 1.137958116902144101e-90
2.670749999999993918e+01 1.833701534052745591e-90
2.692124999999994373e+01 2.335115117227188317e-90
2.713499999999993406e+01 2.324354706452818862e-90
2.734874999999993861e+01 1.455032214190593726e-90
2.756249999999994316e+01 -5.393356087234376545e-91
2.777624999999993349e+01 -3.692801188557482842e-90
2.798999999999993804e+01 -7.637061611082336261e-90
2.820374999999994259e+01 -1.146525289496739100e-89
2.841749999999993292e+01 -1.370244551727173337e-89
2.863124999999993747e+01 -1.246526015932012980e-89
2.884499999999994202e+01 -5.878232248449663752e-90
2.905874999999993236e+01 7.235097424996298136e-90
2.927249999999993690e+01 2.645764120792685248e-89
2.948624999999994145e+01 4.887409301277428190e-89
2.969999999999993179e+01 6.848085059353588000e-89
2.991374999999993634e+01 7.633371694036210677e-89
3.012749999999994088e+01 6.186421994165545125e-89
3.034124999999993122e+01 1.565001683361149977e-89
3.055499999999993577e+01 -6.642000205233632555e-89
3.076874999999994031e+01 -1.781929589126295922e-88
3.098249999999993065e+01 -2.988001554242277240e-88
3.119624999999993520e+01 -3.906475065490615196e-88
3.140999999999993975e+01 -4.021566324743233765e-88
3.162374999999993008e+01 -2.773284452901750398e-88
3.183749999999993463e+01 2.694062260180320757e-89
3.205124999999993918e+01 5.170710275799788412e-88
3.226499999999992951e+01 1.136983871209639156e-87
3.247874999999993406e+01 1.748268745864031347e-87
3.269249999999993861e+01 2.127293211109795881e-87
3.290624999999992895e+01 1.991068418349301633e-87
3.311999999999993349e+01 1.060822867800392955e-87
3.333374999999993804e+01 -8.356620313907104921e-88
3.354749999999992838e+01 -3.635161316027575705e-87
3.376124999999993292e+01 -6.912987151355690414e-87
3.397499999999993747e+01 -9.806737956147537057e-87
3.418874999999992781e+01 -1.104831674933356257e-86
3.440249999999993236e+01 -9.160627481188749616e-87
3.461624999999993690e+01 -2.851780049282942574e-87
3.482999999999992724e+01 8.410362507102589342e-87
3.504374999999993179e+01 2.373541610140244771e-86
3.525749999999993634e+01 4.024023614142116047e-86
3.547124999999992667e+01 5.283112101252524795e-86
3.568499999999993122e+01 5.463405241132811707e-86
3.589874999999993577e+01 3.832128330581870319e-86
3.611249999999992610e+01 -1.581886864955591379e-87
3.632624999999993065e+01 -6.562156983872252376e-86
3.653999999999993520e+01 -1.461840041413272640e-85
3.675374999999992554e+01 -2.251524953341591791e-85
3.696749999999993008e+01 -2.738225286443699652e-85
3.718124999999993463e+01 -2.564871104088349403e-85
3.739499999999992497e+01 -1.386751927220528413e-85
3.760874999999992951e+01 1.000095696666113559e-85
3.782249999999993406e+01 4.501481290807913785e-85
3.803624999999993861e+01 8.576092404737159151e-85
3.824999999999994316e+01 1.215217018348408412e-84
3.846374999999991928e+01 1.367870815299692794e-84
3.867749999999992383e+01 1.137472548760692709e-84
3.889124999999992838e+01 3.709484605510068548e-85
3.910499999999993292e+01 -9.914022687567165947e-85
3.931874999999993747e+01 -2.838722285007037264e-84
3.953249999999994202e+01 -4.825020742785950141e-84
3.974624999999991815e+01 -6.347129377594645620e-84
3.995999999999992269e+01 -6.598291594972150527e-84
4.017374999999992724e+01 -4.724129308004012081e-84
4.038749999999993179e+01 -8.837870304714112037e-86
4.060124999999993634e+01 7.377588131751744488e-84
4.081499999999994088e+01 1.681163926904973789e-83
4.102874999999991701e+01 2.616057836605474188e-83
4.124249999999992156e+01 3.217271494374589886e-83
4.145624999999992610e+01 3.079549407987074504e-83
4.166999999999993065e+01 1.808181299658638897e-83
4.188374999999993520e+01 -8.403673195150936743e-84
4.209749999999993975e+01 -4.786203598839198788e-83
4.231124999999991587e+01 -9.462004343421234671e-83
4.252499999999992042e+01 -1.371763467925236525e-82
4.273874999999992497e+01 -1.586576596404095796e-82
4.295249999999992951e+01 -1.393540374117062873e-82
4.316624999999993406e+01 -6.169055589134866786e-83
4.337999999999993861e+01 8.261944815899381954e-83
4.359374999999991473e+01 2.843738539532469591e-82
4.380749999999991928e+01 5.097733894151977125e-82
4.402124999999992383e+01 6.974112454863200761e-82
4.423499999999992838e+01 7.627254548784297459e-82
4.444874999999993292e+01 6.127216296217784503e-82
4.466249999999993747e+01 1.719651654718936158e-82
4.487624999999991360e+01 -5.823263514968539084e-82
4.508999999999991815e+01 -1.582506589075335481e-81
4.530374999999992269e+01 -2.640983960478680173e-81
4.551749999999992724e+01 -3.443381422538389298e-81
4.573124999999993179e+01 -3.579467138664392044e-81
4.594499999999993634e+01 -2.623047296236774817e-81
4.615874999999991246e+01 -2.622502990341184611e-82
4.637249999999991701e+01 3.534053283675195013e-81
4.658624999999992156e+01 8.347717198162846090e-81
4.679999999999992610e+01 1.319434914828246176e-80
4.701374999999993065e+01 1.652465304098209398e-80
4.722749999999993520e+01 1.640944056427097215e-80
4.744124999999993975e+01 1.095030745660550110e-80
4.765499999999991587e+01 -1.091835808952809208e-81
4.786874999999992042e+01 -1.953278620506844614e-80
4.808249999999992497e+01 -4.203684556278821285e-80
4.829624999999992951e+01 -6.367774475602536550e-80
4.850999999999993406e+01 -7.708742575170555583e-80
4.872374999999993861e+01 -7.346557735294526875e-80
4.893749999999991473e+01 -4.459563154440276707e-80
4.915124999999991928e+01 1.422942597075437874e-80
4.936499999999992383e+01 1.008099234912673583e-79
4.957874999999992838e+01 2.029950355741594214e-79
4.979249999999993292e+01 2.971445974470621037e-79
5.000624999999993747e+01 3.493900391512606078e-79
5.021999999999991360e+01 3.207908657696089402e-79
5.043374999999991815e+01 1.768357688620499242e-79
5.064749999999992269e+01 -9.939382877418819396e-80
5.086124999999992724e+01 -4.925923313124579240e-79
5.107499999999993179e+01 -9.429413258203114749e-79
5.128874999999993634e+01 -1.341239628718707338e-78
5.150249999999991246e+01 -1.536861178222496717e-78
5.171624999999991701e+01 -1.362761921846125418e-78
5.192999999999992156e+01 -6.786312149462448062e-79
5.214374999999992610e+01 5.718031890987217598e-79
5.235749999999993065e+01 2.299775166437814161e-78
5.257124999999993520e+01 4.223783170646022550e-78
5.278499999999991132e+01 5.856801966764651364e-78
5.299874999999991587e+01 6.550262509836879940e-78
5.321249999999992042e+01 5.610258609939542324e-78
5.342624999999992497e+01 2.486988522736352580e-78
5.363999999999992951e+01 -2.983658887045819119e-78
5.385374999999993406e+01 -1.033422818242565833e-77
5.406749999999991019e+01 -1.828888206547566424e-77
5.428124999999991473e+01 -2.474469757784902096e-77
5.449499999999991928e+01 -2.699625909510074161e-77
5.470874999999992383e+01 -2.225669684430988829e-77
5.492249999999992838e+01 -8.463921305092554162e-78
5.513624999999993292e+01 1.473223575537604818e-77
5.534999999999990905e+01 4.501353102597640692e-77
5.556374999999991360e+01 7.677457256907460907e-77
5.577749999999991815e+01 1.011975753228411596e-76
5.599124999999992269e+01 1.073399601788754175e-76
5.620499999999992724e+01 8.440199521629835194e-77
5.641874999999993179e+01 2.506350669392856558e-77
5.663249999999990791e+01 -7.060205414072935854e-77
5.684624999999991246e+01 -1.915447587604204239e-76
5.705999999999991701e+01 -3.137380359296583269e-76
5.727374999999992156e+01 -4.011404584629285399e-76
5.748749999999992610e+01 -4.107673959384913418e-76
5.770124999999993065e+01 -3.023258618565897413e-76
5.791499999999990678e+01 -5.169530139595461836e-77
5.812874999999991132e+01 3.339826658751209729e-76
5.834249999999991587e+01 8.034161024309079224e-76
5.855624999999992042e+01 1.255459233141351429e-75
5.876999999999992497e+01 1.545795449193388193e-75
5.898374999999992951e+01 1.509945902137578696e-75
5.919749999999990564e+01 1.003467863639954541e-75
5.941124999999991019e+01 -4.461599804323329213e-77
5.962499999999991473e+01 -1.575058562194359019e-75
5.983874999999991928e+01 -3.353988067642848374e-75
6.005249999999992383e+01 -4.960347153604557102e-75
6.026624999999992838e+01 -5.824328255640949582e-75
6.047999999999990450e+01 -5.329639507421190356e-75
6.069374999999990905e+01 -2.979149397487854666e-75
6.090749999999991360e+01 1.396095434757960555e-75
6.112124999999991815e+01 7.427368165589457754e-75
6.133499999999992269e+01 1.406201086541324443e-74
6.154874999999992724e+01 1.955565064840679228e-74
6.176249999999993179e+01 2.167220524569224834e-74
6.197624999999990791e+01 1.813114874328414464e-74
6.218999999999991246e+01 7.285219229850997748e-75
6.240374999999991701e+01 -1.106663062974862749e-74
6.261749999999992156e+01 -3.491358106298600831e-74
6.283124999999992610e+01 -5.957127396179822684e-74
6.304499999999993065e+01 -7.781291631715391862e-74
6.325874999999990678e+01 -8.084201967937055483e-74
6.347249999999991132e+01 -6.022094744269353983e-74
6.368624999999991587e+01 -1.063489954191466576e-74
6.389999999999992042e+01 6.694093427972123988e-74
6.411374999999992497e+01 1.624360193758247359e-73
6.432749999999992951e+01 2.552693907509279986e-73
6.454124999999990564e+01 3.154350860407241313e-73
6.475499999999991019e+01 3.079861105701678640e-73
6.496874999999991473e+01 2.012302213694890319e-73
6.518249999999991928e+01 -2.201159831309453645e-74
6.539624999999992383e+01 -3.519685943171929892e-73
6.560999999999992838e+01 -7.414629828855191455e-73
6.582374999999990450e+01 -1.101539393418923967e-72
6.603749999999990905e+01 -1.307478825626215849e-72
6.625124999999991360e+01 -1.218503518564386030e-72
6.646499999999991815e+01 -7.120295638727586939e-73
6.667874999999992269e+01 2.705639597606608279e-73
6.689249999999992724e+01 1.674556787009370697e-72
6.710624999999990337e+01 3.291718355394525118e-72
6.731999999999990791e+01 4.745693164596744950e-72
6.753374999999991246e+01 5.519739592608239698e-72
6.774749999999991701e+01 5.039399464700593469e-72
6.796124999999992156e+01 2.812769533271479533e-72
6.817499999999992610e+01 -1.384391829536794397e-72
6.838874999999990223e+01 -7.310642478162169296e-72
6.860249999999990678e+01 -1.409896665654576372e-71
6.881624999999991132e+01 -2.019967229652099368e-71
6.902999999999991587e+01 -2.349231015241495997e-71
6.924374999999992042e+01 -2.161626349512109257e-71
6.945749999999992497e+01 -1.253104496863583740e-71
6.967124999999990109e+01 4.742732942643322205e-72
6.988499999999990564e+01 2.932538527907591439e-71
7.009874999999991019e+01 5.782185500720441744e-71
7.031249999999991473e+01 8.406022202212253738e-71
7.052624999999991928e+01 9.948721076271542230e-71
7.073999999999992383e+01 9.442283301191354815e-71
7.095374999999989996e+01 6.023172271204508248e-71
7.116749999999990450e+01 -7.759452599345396310e-72
7.138124999999990905e+01 -1.070563845945583681e-70
7.159499999999991360e+01 -2.252555095787983916e-70
7.180874999999991815e+01 -3.387421049427634189e-70
7.202249999999992269e+01 -4.138626296413565174e-70
7.223624999999989882e+01 -4.114082799081656712e-70
7.244999999999990337e+01 -2.947294377332032107e-70
7.266374999999990791e+01 -4.095859744028623245e-71
7.287749999999991246e+01 3.462667449558641280e-70
7.309124999999991701e+01 8.253365861459845156e-70
7.330499999999992156e+01 1.310137054219231035e-69
7.351874999999989768e+01 1.672490745180321865e-69
7.373249999999990223e+01 1.757036089926178669e-69
7.394624999999990678e+01 1.410259154470732376e-69
7.415999999999991132e+01 5.223884548611214079e-70
7.437374999999991587e+01 -9.231471085221405866e-70
7.458749999999992042e+01 -2.802399548466627711e-69
7.480124999999992497e+01 -4.819227524602637354e-69
7.501499999999990109e+01 -6.504704630896668040e-69
7.522874999999990564e+01 -7.261774992231283579e-69
7.544249999999991019e+01 -6.463761216739416027e-69
7.565624999999991473e+01 -3.605054267359256427e-69
7.586999999999991928e+01 1.512060901085504126e-69
7.608374999999992383e+01 8.587014063334384876e-69
7.629749999999989996e+01 1.667487773831414568e-68
7.651124999999990450e+01 2.414210820444380305e-68
7.672499999999990905e+01 2.878053378392088282e-68
7.693874999999991360e+01 2.811995061077230946e-68
7.715249999999991815e+01 1.994624817401898662e-68
7.736624999999992269e+01 2.982286399830341887e-69
7.757999999999989882e+01 -2.237148195984333606e-68
7.779374999999990337e+01 -5.339953841137361446e-68
7.800749999999990791e+01 -8.474402114811169522e-68
7.822124999999991246e+01 -1.086051775110378481e-67
7.843499999999991701e+01 -1.156469388206112089e-67
7.864874999999992156e+01 -9.668291635376176864e-68
7.886249999999989768e+01 -4.505362011191750127e-68
7.907624999999990223e+01 4.060613568051054514e-68
7.928999999999990678e+01 1.537366026208587333e-67
7.950374999999991132e+01 2.780755599919263680e-67
7.971749999999991587e+01 3.875403511063993115e-67
7.993124999999992042e+01 4.485030616214244854e-67
8.014499999999989654e+01 4.249066076864292498e-67
8.035874999999990109e+01 2.861532608549771426e-67
8.057249999999990564e+01 1.698271630977769073e-68
8.078624999999991019e+01 -3.722612971426980626e-67
8.099999999999991473e+01 -8.373398362808589827e-67
8.121374999999991928e+01 -1.296664504382124963e-66
8.142749999999989541e+01 -1.635542736130622919e-66
8.164124999999989996e+01 -1.720286164283088098e-66
8.185499999999990450e+01 -1.422831163633101349e-66
8.206874999999990905e+01 -6.542274636286069744e-67
8.228249999999991360e+01 5.974801913308422007e-67
8.249624999999991815e+01 2.232352026926114289e-66
8.270999999999989427e+01 4.016303391668778924e-66
8.292374999999989882e+01 5.582062200190106161e-66
8.313749999999990337e+01 6.462593118716418215e-66
8.335124999999990791e+01 6.162196770982158205e-66
8.356499999999991246e+01 4.263555572277176042e-66
8.377874999999991701e+01 5.596833180008260454e-67
8.399249999999989313e+01 -4.810677433863515198e-66
8.420624999999989768e+01 -1.125512784480565677e-65
8.441999999999990223e+01 -1.768394728319800629e-65
8.463374999999990678e+01 -2.256694461348596474e-65
8.484749999999991132e+01 -2.411771590187267698e-65
8.506124999999991587e+01 -2.061273160766224591e-65
8.527499999999989200e+01 -1.082372689443905474e-65
8.548874999999989654e+01 5.493459237668875055e-66
8.570249999999990109e+01 2.714632863074661688e-65
8.591624999999990564e+01 5.121037415772040475e-65
8.612999999999991019e+01 7.302270664291764450e-65
8.634374999999991473e+01 8.658059897962368310e-65
8.655749999999989086e+01 8.541165826341369255e-65
8.677124999999989541e+01 6.389820261548560181e-65
8.698499999999989996e+01 1.892545776269196500e-65
8.719874999999990450e+01 -4.840343131857894088e-65
8.741249999999990905e+01 -1.313586271028088757e-64
8.762624999999991360e+01 -2.169284636979131985e-64
8.783999999999991815e+01 -2.863645476824319717e-64
8.805374999999989427e+01 -3.172688843008870662e-64
8.826749999999989882e+01 -2.873401709184998713e-64
8.848124999999990337e+01 -1.795577986411840746e-64
8.869499999999990791e+01 1.183591598505153744e-65
8.890874999999991246e+01 2.756260350829682088e-64
8.912249999999991701e+01 5.796086276572407239e-64
8.933624999999989313e+01 8.698453650992499300e-64
8.954999999999989768e+01 1.074620359507810485e-63
8.976374999999990223e+01 1.113998805636495392e-63
8.997749999999990678e+01 9.149452669338418295e-64
9.019124999999991132e+01 4.306680124601779750e-64
9.040499999999991587e+01 -3.386217633978773302e-64
9.061874999999989200e+01 -1.327742372740042989e-63
9.083249999999989654e+01 -2.396534307248498932e-63
9.104624999999990109e+01 -3.333125978766569483e-63
9.125999999999990564e+01 -3.874769467784258683e-63
9.147374999999991019e+01 -3.748161497976323957e-63
9.168749999999991473e+01 -2.727446709912582833e-63
9.190124999999989086e+01 -7.033919192438690119e-64
9.211499999999989541e+01 2.247775969261381676e-63
9.232874999999989996e+01 5.811627422641360809e-63
9.254249999999990450e+01 9.416900954037749659e-63
9.275624999999990905e+01 1.226800992854910458e-62
9.296999999999991360e+01 1.344047021343734885e-62
9.318374999999988972e+01 1.204116083550596468e-62
9.339749999999989427e+01 7.421342603347022122e-63
9.361124999999989882e+01 -5.860915672102660148e-64
9.382499999999990337e+01 -1.144975101059555892e-62
9.403874999999990791e+01 -2.379982092787093638e-62
9.425249999999991246e+01 -3.542516628766968972e-62
9.446624999999988859e+01 -4.345878217619157174e-62
9.467999999999989313e+01 -4.477926817225468178e-62
9.489374999999989768e+01 -3.661738912031713607e-62
9.510749999999990223e+01 -1.730644381104023521e-62
9.532124999999990678e+01 1.293979212787331061e-62
9.553499999999991132e+01 5.138658298440925986e-62
9.574874999999988745e+01 9.246957243127641369e-62
9.596249999999989200e+01 1.280084048871594360e-61
9.617624999999989654e+01 1.480847130053091564e-61
9.638999999999990109e+01 1.426284755285400441e-61
9.660374999999990564e+01 1.036131132817322102e-61
9.681749999999991019e+01 2.758649718088806088e-62
9.703124999999988631e+01 -8.190919886968734586e-62
9.724499999999989086e+01 -2.126120882812934492e-61
9.745874999999989541e+01 -3.431465419031015858e-61
9.767249999999989996e+01 -4.445266710226551459e-61
9.788624999999990450e+01 -4.838994878318305025e-61
9.809999999999990905e+01 -4.304885011385112046e-61
9.831374999999988518e+01 -2.631895781732339818e-61
9.852749999999988972e+01 2.129598089568694832e-62
9.874124999999989427e+01 4.014234819439447760e-61
9.895499999999989882e+01 8.268273009246277841e-61
9.916874999999990337e+01 1.219376977883928347e-60
9.938249999999990791e+01 1.480805873814126558e-60
9.959624999999988404e+01 1.507516616110329576e-60
9.980999999999988859e+01 1.211767064534399984e-60
1.000237499999998931e+02 5.467268194415589762e-61
1.002374999999998977e+02 -4.688552007532728385e-61
1.004512499999999022e+02 -1.732033684827313303e-60
1.006649999999999068e+02 -3.049377697781514231e-60
1.008787499999998829e+02 -4.148701712191999764e-60
1.010924999999998875e+02 -4.712436859247879960e-60
1.013062499999998920e+02 -4.432652958864758508e-60
1.015199999999998965e+02 -3.082877804682157729e-60
1.017337499999999011e+02 -5.964066913292700081e-61
1.019474999999999056e+02 2.864217590550553299e-60
1.021612499999999102e+02 6.865158966487333838e-60
1.023749999999998863e+02 1.070549811552378406e-59
1.025887499999998909e+02 1.348256281632611347e-59
1.028024999999998954e+02 1.422457259004199438e-59
1.030162499999999000e+02 1.208375374241406381e-59
1.032299999999999045e+02 6.567132875061388099e-60
1.034437499999999091e+02 -2.234022823115764283e-60
1.036574999999998852e+02 -1.346810042638699422e-59
1.038712499999998897e+02 -2.545795637731178869e-59
1.040849999999998943e+02 -3.579872160451566245e-59
1.042987499999998988e+02 -4.165150482557103311e-59
1.045124999999999034e+02 -4.023281123445070368e-59
1.047262499999999079e+02 -2.945526363086746712e-59
1.049399999999998840e+02 -8.626115598944221697e-60
1.051537499999998886e+02 2.093441419706860469e-59
1.053674999999998931e+02 5.552111806823536878e-59
1.055812499999998977e+02 8.908418734959856763e-59
1.057949999999999022e+02 1.138104142613509902e-58
1.060087499999999068e+02 1.212941494314133644e-58
1.062224999999998829e+02 1.042297878360518737e-58
1.064362499999998875e+02 5.841668668152983826e-59
1.066499999999998920e+02 -1.527303408864992614e-59
1.068637499999998965e+02 -1.094212842515580692e-58
1.070774999999999011e+02 -2.095828149889437862e-58
1.072912499999999056e+02 -2.952336457356330540e-58
1.075049999999998818e+02 -3.424074199298829664e-58
1.077187499999998863e+02 -3.279802910441279886e-58
1.079324999999998909e+02 -2.351771974910370651e-58
1.081462499999998954e+02 -5.945304240870511526e-59
1.083599999999999000e+02 1.864635231314247839e-58
1.085737499999999045e+02 4.697870502116150455e-58
1.087874999999998806e+02 7.385329546082306087e-58
1.090012499999998852e+02 9.270234832619876077e-58
1.092149999999998897e+02 9.663238729133627720e-58
1.094287499999998943e+02 7.988599359180200921e-58
1.096424999999998988e+02 3.952668100381128313e-58
1.098562499999999034e+02 -2.296360695308752297e-58
1.100699999999998795e+02 -1.005677369532106258e-57
1.102837499999998840e+02 -1.805112495694173856e-57
1.104974999999998886e+02 -2.452815662342901414e-57
1.107112499999998931e+02 -2.750666642428480833e-57
1.109249999999998977e+02 -2.515261998758797482e-57
1.111387499999999022e+02 -1.624749018714491762e-57
1.113524999999998784e+02 -6.710398610289838236e-59
1.115662499999998829e+02 2.020699794126509608e-57
1.117799999999998875e+02 4.334609514410904825e-57
1.119937499999998920e+02 6.417630245011196501e-57
1.122074999999998965e+02 7.713656503147894782e-57
1.124212499999999011e+02 7.661893990994093070e-57
1.126349999999998772e+02 5.823803197625469667e-57
1.128487499999998818e+02 2.024397772921175987e-57
1.130624999999998863e+02 -3.519579744719921203e-57
1.132762499999998909e+02 -1.011822532068141579e-56
1.134899999999998954e+02 -1.660793559146791620e-56
1.137037499999999000e+02 -2.145885844668847289e-56
1.139174999999998761e+02 -2.300187051741788583e-56
1.141312499999998806e+02 -1.976328659732303770e-56
1.143449999999998852e+02 -1.086711170824296456e-56
1.145587499999998897e+02 3.564050702867038176e-57
1.147724999999998943e+02 2.210092806676694227e-56
1.149862499999998988e+02 4.189323495131365054e-56
1.151999999999998749e+02 5.883964824856968596e-56
1.154137499999998795e+02 6.809852931218947194e-56
1.156274999999998840e+02 6.493762117725704712e-56
1.158412499999998886e+02 4.584389465814314237e-56
1.160549999999998931e+02 9.729925535041107800e-57
1.162687499999998977e+02 -4.100284689295387850e-56
1.164824999999999022e+02 -9.983096673887298028e-56
1.166962499999998784e+02 -1.561915103611770939e-55
1.169099999999998829e+02 -1.965001306703534730e-55
1.171237499999998875e+02 -2.061877532528826841e-55
1.173374999999998920e+02 -1.726388905358314142e-55
1.175512499999998965e+02 -8.867460739227775244e-56
1.177649999999999011e+02 4.401610221614825390e-56
1.179787499999998772e+02 2.122779898288090039e-55
1.181924999999998818e+02 3.905781661676299811e-55
1.184062499999998863e+02 5.425423565664259142e-55
1.186199999999998909e+02 6.254074129407363252e-55
1.188337499999998954e+02 5.973675786608156266e-55
1.190474999999999000e+02 4.271455869830847253e-55
1.192612499999998761e+02 1.044100152363614151e-55
1.194749999999998806e+02 -3.509769499335530685e-55
1.196887499999998852e+02 -8.832986658417918712e-55
1.199024999999998897e+02 -1.401328941330614367e-54
1.201162499999998943e+02 -1.786573755951023977e-54
1.203299999999998988e+02 -1.910188772790226784e-54
1.205437499999998749e+02 -1.657710209767647166e-54
1.207574999999998795e+02 -9.587537858143426437e-55
1.209712499999998840e+02 1.831656499046225409e-55
1.211849999999998886e+02 1.667133610103293202e-54
1.213987499999998931e+02 3.284800684701268146e-54
1.216124999999998977e+02 4.730343155009164111e-54
1.218262499999998738e+02 5.634725399911385000e-54
1.220399999999998784e+02 5.624704969838567860e-54
1.222537499999998829e+02 4.401829226252961632e-54
1.224674999999998875e+02 1.830851446877749851e-54
1.226812499999998920e+02 -1.978402776940897794e-54
1.228949999999998965e+02 -6.615368466768658213e-54
1.231087499999998727e+02 -1.135955702121410093e-53
1.233224999999998772e+02 -1.523463199545610476e-53
1.235362499999998818e+02 -1.713432564145976492e-53
1.237499999999998863e+02 -1.601617087976278218e-53
1.239637499999998909e+02 -1.114331610170322794e-53
1.241774999999998954e+02 -2.338257550451338226e-54
1.243912499999998715e+02 9.801566643960046275e-54
1.246049999999998761e+02 2.378398603267397128e-53
1.248187499999998806e+02 3.725354141967624888e-53
1.250324999999998852e+02 4.721493716647861466e-53
1.252462499999998897e+02 5.046145836448336236e-53
1.254599999999998943e+02 4.418213886017534278e-53
1.256737499999998704e+02 2.667570753355454243e-53
1.258874999999998749e+02 -1.945395688604375235e-54
1.261012499999998795e+02 -3.921163261548560643e-53
1.263149999999998840e+02 -8.007711940111601331e-53
1.265287499999998886e+02 -1.171705026368465538e-52
1.267424999999998931e+02 -1.416084905827619390e-52