2.024999999999579359e-01 -3.083547022879493304e-114
4.162499999999482725e-01 -9.168257048116193069e-115
6.299999999999528200e-01 4.036092167396793457e-114
8.437499999999573674e-01 1.233719838179342653e-113
1.057499999999947704e+00 2.351697996351179917e-113
1.271249999999952252e+00 3.521389441712877260e-113
1.484999999999956799e+00 4.232521349652909261e-113
1.698749999999947136e+00 3.658874284004309392e-113
1.912499999999951683e+00 7.241667480847075238e-114
2.126249999999956231e+00 -5.644603021677472152e-113
2.339999999999946567e+00 -1.600389844382873139e-112
2.553749999999951115e+00 -2.959694893828447060e-112
2.767499999999955662e+00 -4.335968674688860012e-112
2.981249999999945999e+00 -5.099520808473482464e-112
3.194999999999950546e+00 -4.261903570349287137e-112
3.408749999999955094e+00 -5.716811751064986175e-113
3.622499999999945430e+00 7.170971198189723511e-112
3.836249999999949978e+00 1.950696040742758311e-111
4.049999999999954525e+00 3.540570071852962939e-111
4.263749999999944862e+00 5.116234687140677750e-111
4.477499999999949409e+00 5.942052219462320460e-111
4.691249999999953957e+00 4.888972331334046741e-111
4.904999999999944293e+00 5.569387573794663023e-112
5.118749999999948841e+00 -8.359641584558479680e-111
5.332499999999953388e+00 -2.239053805922282693e-110
5.546249999999943725e+00 -4.029077221948167195e-110
5.759999999999948272e+00 -5.786285060838629315e-110
5.973749999999952820e+00 -6.695208946866924281e-110
6.187499999999943157e+00 -5.522765370755150971e-110
6.401249999999947704e+00 -7.599788426548576481e-111
6.614999999999952252e+00 8.978767327333845278e-110
6.828749999999942588e+00 2.422905082867743984e-109
7.042499999999947136e+00 4.362959334276861485e-109
7.256249999999951683e+00 6.270902126339108636e-109
7.469999999999942020e+00 7.287639670551914162e-109
7.683749999999946567e+00 6.124349758080589531e-109
7.897499999999951115e+00 1.213287263609995977e-109
8.111249999999941451e+00 -8.880640708092795893e-109
8.324999999999945999e+00 -2.472178165639712398e-108
8.538749999999950546e+00 -4.495214310467978695e-108
8.752499999999940883e+00 -6.508453970518331919e-108
8.966249999999945430e+00 -7.650914981559780964e-108
9.179999999999949978e+00 -6.632781554346092326e-108
9.393749999999940314e+00 -1.883964445970058523e-108
9.607499999999944862e+00 8.044622890313508268e-108
9.821249999999949409e+00 2.376616629512394083e-107
1.003499999999993975e+01 4.404442513270698851e-107
1.024874999999994429e+01 6.463386334938679813e-107
1.046249999999994884e+01 7.732187970269974614e-107
1.067624999999993918e+01 6.974757598205183710e-107
1.088999999999994373e+01 2.676064661278551910e-107
1.110374999999994827e+01 -6.587344352858375154e-107
1.131749999999993861e+01 -2.148649129349933765e-106
1.153124999999994316e+01 -4.100233411275467876e-106
1.174499999999994770e+01 -6.134883108879184914e-106
1.195874999999993804e+01 -7.506976520480906092e-106
1.217249999999994259e+01 -7.082331193408195442e-106
1.238624999999994714e+01 -3.453559845179176434e-106
1.259999999999993747e+01 4.735751111611253042e-106
1.281374999999994202e+01 1.820774405073014032e-105
1.302749999999994657e+01 3.621755580549055729e-105
1.324124999999995111e+01 5.558774205923328840e-105
1.345499999999994145e+01 6.987752645367176303e-105
1.366874999999994600e+01 6.912727816479878472e-105
1.388249999999995055e+01 4.076333059114720439e-105
1.409624999999994088e+01 -2.771496236388708301e-105
1.430999999999994543e+01 -1.438189201252620605e-104
1.452374999999994998e+01 -3.029712773332258566e-104
1.473749999999994031e+01 -4.801528236378501691e-104
1.495124999999994486e+01 -6.224738183432030192e-104
1.516499999999994941e+01 -6.462855219709067973e-104
1.537874999999993975e+01 -4.436706557887512113e-104
1.559249999999994429e+01 9.647858258467207195e-105
1.580624999999994884e+01 1.048900893337309683e-103
1.601999999999993918e+01 2.393886044698046693e-103
1.623374999999994373e+01 3.947610250664814662e-103
1.644749999999994827e+01 5.297773543953507931e-103
1.666124999999993861e+01 5.772979178457835722e-103
1.687499999999994316e+01 4.484384502795711294e-103
1.708874999999994770e+01 4.818439096417962171e-104
1.730249999999993804e+01 -6.942364238406753769e-103
1.751624999999994259e+01 -1.779775925582934183e-102
1.772999999999994714e+01 -3.083612818398344939e-102
1.794374999999993747e+01 -4.301277852805700772e-102
1.815749999999994202e+01 -4.918294998105871729e-102
1.837124999999994657e+01 -4.232873007681182148e-102
1.858499999999993690e+01 -1.464738578273178728e-102
1.879874999999994145e+01 4.022575107641234063e-102
1.901249999999994600e+01 1.237883657093454743e-101
1.922624999999993634e+01 2.283470012326569011e-101
1.943999999999994088e+01 3.326704546337539721e-101
1.965374999999994543e+01 3.991687348800406049e-101
1.986749999999993577e+01 3.747764866457326966e-101
2.008124999999994031e+01 1.980463568177154519e-101
2.029499999999994486e+01 -1.853656997449798288e-101
2.050874999999993520e+01 -7.979862646145534606e-101
2.072249999999993975e+01 -1.598395177363882731e-100
2.093624999999994429e+01 -2.447481570280008374e-100
2.114999999999993463e+01 -3.083787887789882672e-100
2.136374999999993918e+01 -3.123408110236890752e-100
2.157749999999994373e+01 -2.102751307341067155e-100
2.179124999999993406e+01 4.190011955354932542e-101
2.200499999999993861e+01 4.689377910964809948e-100
2.221874999999994316e+01 1.053325026975062637e-99
2.243249999999993349e+01 1.710103659900825007e-99
2.264624999999993804e+01 2.266526659995972920e-99
2.285999999999994259e+01 2.457109536636546784e-99
2.307374999999993292e+01 1.946986576535836507e-99
2.328749999999993747e+01 3.960816601242926727e-100
2.350124999999994202e+01 -2.428381935643508770e-99
2.371499999999993236e+01 -6.494645017326362677e-99
2.392874999999993690e+01 -1.132592119892479273e-98
2.414249999999994145e+01 -1.584138530402430108e-98
2.435624999999993179e+01 -1.828794782019159481e-98
2.456999999999993634e+01 -1.635058349592485188e-98
2.478374999999994088e+01 -7.530778274598119565e-99
2.499749999999993122e+01 1.014451601943368192e-98
2.521124999999993577e+01 3.708829216517030121e-98
2.542499999999994031e+01 7.091084405932842177e-98
2.563874999999993065e+01 1.052386181519701764e-97
2.585249999999993520e+01 1.290317178001275335e-97
2.606624999999993975e+01 1.269753227634474439e-97
2.627999999999994429e+01 8.156250927541071314e-98
2.649374999999993463e+01 -2.264773377661807715e-98
2.670749999999993918e+01 -1.924995191082730303e-97
2.692124999999994373e+01 -4.180217012401219424e-97
2.713499999999993406e+01 -6.640658534344462720e-97
2.734874999999993861e+01 -8.644486058916143346e-97
2.756249999999994316e+01 -9.222331491252500711e-97
2.777624999999993349e+01 -7.202506033128385117e-97
2.798999999999993804e+01 -1.454024153295488701e-97
2.820374999999994259e+01 8.718085599505648266e-97
2.841749999999993292e+01 2.305047233434722858e-96
2.863124999999993747e+01 3.975573926836225685e-96
2.884499999999994202e+01 5.506717941328176242e-96
2.905874999999993236e+01 6.311537163620429952e-96
2.927249999999993690e+01 5.639911881416323026e-96
2.948624999999994145e+01 2.709700957008440326e-96
2.969999999999993179e+01 -3.064035683849682009e-96
2.991374999999993634e+01 -1.174991318088143923e-95
3.012749999999994088e+01 -2.253358029516376372e-95
3.034124999999993122e+01 -3.338918705877445747e-95
3.055499999999993577e+01 -4.091895713243831183e-95
3.076874999999994031e+01 -4.052293053658195173e-95
3.098249999999993065e+01 -2.706244520541560035e-95
3.119624999999993520e+01 3.868579674989020410e-96
3.140999999999993975e+01 5.406853238240734901e-95
3.162374999999993008e+01 1.204468641802286318e-94
3.183749999999993463e+01 1.927916251127693773e-94
3.205124999999993918e+01 2.523212659604684018e-94
3.226499999999992951e+01 2.719866978612827130e-94
3.247874999999993406e+01 2.195651149938290616e-94
3.269249999999993861e+01 6.438401132210012562e-95
3.290624999999992895e+01 -2.120832012543829445e-94
3.311999999999993349e+01 -6.025651797942080242e-94
3.333374999999993804e+01 -1.059579265843837000e-93
3.354749999999992838e+01 -1.484262752545854058e-93
3.376124999999993292e+01 -1.724010397607996391e-93
3.397499999999993747e+01 -1.585295856663413221e-93
3.418874999999992781e+01 -8.674066956642508417e-94
3.440249999999993236e+01 5.800179799577921020e-94
3.461624999999993690e+01 2.778299847944024317e-93
3.482999999999992724e+01 5.530770326739280789e-93
3.504374999999993179e+01 8.344521195163523856e-93
3.525749999999993634e+01 1.039379093219932055e-92
3.547124999999992667e+01 1.056263193696940192e-92
3.568499999999993122e+01 7.603836675887418302e-93
3.589874999999993577e+01 4.386265714456788948e-94
3.611249999999992610e+01 -1.140623933218702227e-92
3.632624999999993065e+01 -2.727156350683418606e-92
3.653999999999993520e+01 -4.485404600551640702e-92
3.675374999999992554e+01 -5.987598773123125052e-92
3.696749999999993008e+01 -6.615087816120247311e-92
3.718124999999993463e+01 -5.627233503431399028e-92
3.739499999999992497e+01 -2.310539165860338494e-92
3.760874999999992951e+01 3.787408780221982809e-92
3.782249999999993406e+01 1.255759302294531412e-91
3.803624999999993861e+01 2.301284214943522675e-91
3.824999999999994316e+01 3.304074075072452850e-91
3.846374999999991928e+01 3.934426030049743184e-91
3.867749999999992383e+01 3.770423226659494354e-91
3.889124999999992838e+01 2.368303696557664470e-91
3.910499999999993292e+01 -6.171091123194243125e-92
3.931874999999993747e+01 -5.267452690587857692e-91
3.953249999999994202e+01 -1.121373340575392151e-90
3.974624999999991815e+01 -1.746988798360975317e-90
3.995999999999992269e+01 -2.234977443740947933e-90
4.017374999999992724e+01 -2.354364490397428816e-90
4.038749999999993179e+01 -1.842863727059510618e-90
4.060124999999993634e+01 -4.662974075592490475e-91
4.081499999999994088e+01 1.894132484706138088e-90
4.102874999999991701e+01 5.135905696085022525e-90
4.124249999999992156e+01 8.830927353860148900e-90
4.145624999999992610e+01 1.215513505409485109e-89
4.166999999999993065e+01 1.389350888678043551e-89
4.188374999999993520e+01 1.256461870151720714e-89
4.209749999999993975e+01 6.699828027461202167e-90
4.231124999999991587e+01 -4.712637306961274994e-90
4.252499999999992042e+01 -2.165146742301869797e-89
4.273874999999992497e+01 -4.244553946454982820e-89
4.295249999999992951e+01 -6.327532241036063843e-89
4.316624999999993406e+01 -7.801101464796359286e-89
4.337999999999993861e+01 -7.863693639567199020e-89
4.359374999999991473e+01 -5.648712766170747399e-89
4.380749999999991928e+01 -4.411326231157168399e-90
4.402124999999992383e+01 8.021337336744114152e-89
4.423499999999992838e+01 1.920097081126206035e-88
4.444874999999993292e+01 3.144148208946978392e-88
4.466249999999993747e+01 4.178894825617819178e-88
4.487624999999991360e+01 4.608738365111979874e-88
4.508999999999991815e+01 3.948328678929811630e-88
4.530374999999992269e+01 1.743265225308333418e-88
4.551749999999992724e+01 -2.278830524590176697e-88
4.573124999999993179e+01 -8.021419009657631747e-88
4.594499999999993634e+01 -1.482987702665427015e-87
4.615874999999991246e+01 -2.135392553405621618e-87
4.637249999999991701e+01 -2.553194598856036627e-87
4.658624999999992156e+01 -2.477298276046425444e-87
4.679999999999992610e+01 -1.639884818555592160e-87
4.701374999999993065e+01 1.630568651016211663e-88
4.722749999999993520e+01 2.975451013813154553e-87
4.744124999999993975e+01 6.575217225104668062e-87
4.765499999999991587e+01 1.038377989198762910e-86
4.786874999999992042e+01 1.342608562509904508e-86
4.808249999999992497e+01 1.438184190064985180e-86
4.829624999999992951e+01 1.176579640921006696e-86
4.850999999999993406e+01 4.259408640471662824e-87
4.872374999999993861e+01 -8.814503884474692561e-87
4.893749999999991473e+01 -2.692849975766408803e-86
4.915124999999991928e+01 -4.780951049435719123e-86
4.936499999999992383e+01 -6.708787411611994377e-86
4.957874999999992838e+01 -7.834531041119167049e-86
4.979249999999993292e+01 -7.377538716320146518e-86
5.000624999999993747e+01 -4.561621292038928482e-86
5.021999999999991360e+01 1.161480327513519086e-86
5.043374999999991815e+01 9.826605058416126709e-86
5.064749999999992269e+01 2.065379010433468992e-85
5.086124999999992724e+01 3.180764179698367295e-85
5.107499999999993179e+01 4.031998405935185746e-85
5.128874999999993634e+01 4.228960151088219516e-85
5.150249999999991246e+01 3.345824104007637914e-85
5.171624999999991701e+01 1.021111999701466725e-85
5.192999999999992156e+01 -2.904276853344206090e-85
5.214374999999992610e+01 -8.228735638786808500e-85
5.235749999999993065e+01 -1.424456701532563039e-84
5.257124999999993520e+01 -1.965363408751046327e-84
5.278499999999991132e+01 -2.260167026819467299e-84
5.299874999999991587e+01 -2.088750139348388088e-84
5.321249999999992042e+01 -1.238552900674321738e-84
5.342624999999992497e+01 4.318685035913916844e-85
5.363999999999992951e+01 2.913953563995514587e-84
5.385374999999993406e+01 5.968468274911370504e-84
5.406749999999991019e+01 9.064542096827896832e-84
5.428124999999991473e+01 1.136619502561771686e-83
5.449499999999991928e+01 1.179614808406245218e-83
5.470874999999992383e+01 9.201541842640133932e-84
5.492249999999992838e+01 2.631377703927617893e-84
5.513624999999993292e+01 -8.290076337180373188e-84
5.534999999999990905e+01 -2.294475792647004694e-83
5.556374999999991360e+01 -3.934804291501492684e-83
5.577749999999991815e+01 -5.394924321461957978e-83
5.599124999999992269e+01 -6.175415466199930380e-83
5.620499999999992724e+01 -5.691028286115421393e-83
5.641874999999993179e+01 -3.384423776051890348e-83
5.663249999999990791e+01 1.106231411668795412e-83
5.684624999999991246e+01 7.742635611974353604e-83
5.705999999999991701e+01 1.588064202289226168e-82
5.727374999999992156e+01 2.411895719867345327e-82
5.748749999999992610e+01 3.027256928297373688e-82
5.770124999999993065e+01 3.154482385616680659e-82
5.791499999999990678e+01 2.495750095164034645e-82
5.812874999999991132e+01 8.059872253926204720e-83
5.834249999999991587e+01 -2.012663845193376582e-82
5.855624999999992042e+01 -5.805819012128226815e-82
5.876999999999992497e+01 -1.007398642599557227e-81
5.898374999999992951e+01 -1.392329792495918617e-81
5.919749999999990564e+01 -1.609611411987139998e-81
5.941124999999991019e+01 -1.511541491466629712e-81
5.962499999999991473e+01 -9.564193631799988971e-82
5.983874999999991928e+01 1.503932200226880672e-82
6.005249999999992383e+01 1.806371473909398892e-81
6.026624999999992838e+01 3.861311962346352389e-81
6.047999999999990450e+01 5.979632217009045845e-81
6.069374999999990905e+01 7.632192545977452028e-81
6.090749999999991360e+01 8.135188567775474735e-81
6.112124999999991815e+01 6.750288618128184075e-81
6.133499999999992269e+01 2.851324666214879140e-81
6.154874999999992724e+01 -3.851987500303434133e-81
6.176249999999993179e+01 -1.306276808922080614e-80
6.197624999999990791e+01 -2.367002150500628977e-80
6.218999999999991246e+01 -3.361816325938584290e-80
6.240374999999991701e+01 -3.995686334545181436e-80
6.261749999999992156e+01 -3.915073354182474930e-80
6.283124999999992610e+01 -2.770108488239056734e-80
6.304499999999993065e+01 -3.077170314246366590e-81
6.325874999999990678e+01 3.512761603085083905e-80
6.347249999999991132e+01 8.400055556344564866e-80
6.368624999999991587e+01 1.363658216402851284e-79
6.389999999999992042e+01 1.804642668477455722e-79
6.411374999999992497e+01 2.006555838844165614e-79
6.432749999999992951e+01 1.794786056892754456e-79
6.454124999999990564e+01 1.012242428716242869e-79
6.475499999999991019e+01 -4.313623715594737975e-80
6.496874999999991473e+01 -2.502520184442350424e-79
6.518249999999991928e+01 -4.989971952717797745e-79
6.539624999999992383e+01 -7.469121995168345696e-79
6.560999999999992838e+01 -9.303099611548577330e-79
6.582374999999990450e+01 -9.698482861935949414e-79
6.603749999999990905e+01 -7.828714438599128604e-79
6.625124999999991360e+01 -3.027477192638559086e-79
6.646499999999991815e+01 4.962345778441440990e-79
6.667874999999992269e+01 1.571968472954962040e-78
6.689249999999992724e+01 2.791440815938624635e-78
6.710624999999990337e+01 3.919164365359192415e-78
6.731999999999990791e+01 4.625713971140300816e-78
6.753374999999991246e+01 4.524092345339430996e-78
6.774749999999991701e+01 3.238430611963335655e-78
6.796124999999992156e+01 5.036121025425448695e-79
6.817499999999992610e+01 -3.714025245172985149e-78
6.838874999999990223e+01 -9.094804807995078024e-78
6.860249999999990678e+01 -1.487248074963040745e-77
6.881624999999991132e+01 -1.980678529967393647e-77
6.902999999999991587e+01 -2.226043045982895931e-77
6.924374999999992042e+01 -2.041192349643617621e-77
6.945749999999992497e+01 -1.261694780014477022e-77
6.967124999999990109e+01 2.099607568528005780e-78
6.988499999999990564e+01 2.347976205361454996e-77
7.009874999999991019e+01 4.950132124193213680e-77
7.031249999999991473e+01 7.602595352963973075e-77
7.052624999999991928e+01 9.679850380029474860e-77
7.073999999999992383e+01 1.039650171367663131e-76
7.095374999999989996e+01 8.922911986444752457e-77
7.116749999999990450e+01 4.566670521632668780e-77
7.138124999999990905e+01 -2.993263344568914107e-77
7.159499999999991360e+01 -1.345195071698193263e-76
7.180874999999991815e+01 -2.565573379183068869e-76
7.202249999999992269e+01 -3.748050122041810902e-76
7.223624999999989882e+01 -4.588792235704306527e-76
7.244999999999990337e+01 -4.722940615873143311e-76
7.266374999999990791e+01 -3.784007040157380630e-76
7.287749999999991246e+01 -1.491455490600589859e-76
7.309124999999991701e+01 2.241532872460307160e-76
7.330499999999992156e+01 7.196685165566316903e-76
7.351874999999989768e+01 1.276076020563421962e-75
7.373249999999990223e+01 1.788869728171894577e-75
7.394624999999990678e+01 2.115311149368887657e-75
7.415999999999991132e+01 2.090807886061433680e-75
7.437374999999991587e+01 1.558062187594017179e-75
7.458749999999992042e+01 4.078930672307460731e-76
7.480124999999992497e+01 -1.372650768966699347e-75
7.501499999999990109e+01 -3.653005086310136246e-75
7.522874999999990564e+01 -6.124245826022069716e-75
7.544249999999991019e+01 -8.290618302464201315e-75
7.565624999999991473e+01 -9.501427650776457691e-75
7.586999999999991928e+01 -9.034041478162979102e-75
7.608374999999992383e+01 -6.231515249370580018e-75
7.629749999999989996e+01 -6.870272150310540002e-76
7.651124999999990450e+01 7.547245798091383974e-75
7.672499999999990905e+01 1.776497283317452797e-74
7.693874999999991360e+01 2.847625045677378966e-74
7.715249999999991815e+01 3.740373346330747159e-74
7.736624999999992269e+01 4.166133730725032140e-74
7.757999999999989882e+01 3.815512935003833831e-74
7.779374999999990337e+01 2.421162624478604491e-74
7.800749999999990791e+01 -1.612117480638498617e-75
7.822124999999991246e+01 -3.864485192598279115e-74
7.843499999999991701e+01 -8.331705648010300426e-74
7.864874999999992156e+01 -1.287027156807035343e-73
7.886249999999989768e+01 -1.646369743450200934e-73
7.907624999999990223e+01 -1.786357444978139026e-73
7.928999999999990678e+01 -1.577564291405616517e-73
7.950374999999991132e+01 -9.138184519726020403e-74
7.971749999999991587e+01 2.531189638717271768e-74
7.993124999999992042e+01 1.877049712496771745e-73
8.014499999999989654e+01 3.786623846269617601e-73
8.035874999999990109e+01 5.670000087809609358e-73
8.057249999999990564e+01 7.085080052613876282e-73
8.078624999999991019e+01 7.504047066092557860e-73
8.099999999999991473e+01 6.396834196997332071e-73
8.121374999999991928e+01 3.351214679983362826e-73
8.142749999999989541e+01 -1.782167257286532483e-73
8.164124999999989996e+01 -8.742221288110725825e-73
8.185499999999990450e+01 -1.673985969750078017e-72
8.206874999999990905e+01 -2.441011239795351530e-72
8.228249999999991360e+01 -2.987459751589915959e-72
8.249624999999991815e+01 -3.094726262040265431e-72
8.270999999999989427e+01 -2.549775458457299644e-72
8.292374999999989882e+01 -1.195710189932008699e-72
8.313749999999990337e+01 1.008834588995255967e-72
8.335124999999990791e+01 3.931161010651590548e-72
8.356499999999991246e+01 7.220424053080692317e-72
8.377874999999991701e+01 1.029403929871967253e-71
8.399249999999989313e+01 1.237050193051953348e-71
8.420624999999989768e+01 1.256076913130489361e-71
8.441999999999990223e+01 1.002228061952697557e-71
8.463374999999990678e+01 4.167327464373255972e-72
8.484749999999991132e+01 -5.098175552690819295e-72
8.506124999999991587e+01 -1.714625585894213957e-71
8.527499999999989200e+01 -3.046417735021572782e-71
8.548874999999989654e+01 -4.262118616827761339e-71
8.570249999999990109e+01 -5.042598122810362811e-71
8.591624999999990564e+01 -5.031905497544538503e-71
8.612999999999991019e+01 -3.901002622474512400e-71
8.634374999999991473e+01 -1.431980433478875591e-71
8.655749999999989086e+01 2.387460468211207794e-71
8.677124999999989541e+01 7.275965239979764460e-71
8.698499999999989996e+01 1.259905340276175998e-70
8.719874999999990450e+01 1.736312115801320508e-70
8.741249999999990905e+01 2.028620876658630329e-70
8.762624999999991360e+01 1.996142077659579857e-70
8.783999999999991815e+01 1.511496965638177288e-70
8.805374999999989427e+01 4.940806772998228024e-71
8.826749999999989882e+01 -1.053035749595429271e-70
8.848124999999990337e+01 -3.009453633552873007e-70
8.869499999999990791e+01 -5.115737221806079340e-70
8.890874999999991246e+01 -6.973249027376136868e-70
8.912249999999991701e+01 -8.074312411071037247e-70
8.933624999999989313e+01 -7.868418128890069387e-70
8.954999999999989768e+01 -5.864648082742644976e-70
8.976374999999990223e+01 -1.762682855783803577e-70
8.997749999999990678e+01 4.404518810513810431e-70
9.019124999999991132e+01 1.214260567737194245e-69
9.040499999999991587e+01 2.041589357637253210e-69
9.061874999999989200e+01 2.765225536171447691e-69
9.083249999999989654e+01 3.186584668001709683e-69
9.104624999999990109e+01 3.091845397642915781e-69
9.125999999999990564e+01 2.291870111418178970e-69
9.147374999999991019e+01 6.728410664316442409e-70
9.168749999999991473e+01 -1.748980460349216456e-69
9.190124999999989086e+01 -4.778468321844738113e-69
9.211499999999989541e+01 -8.011644441727601897e-69
9.232874999999989996e+01 -1.083838306131204054e-68
9.254249999999990450e+01 -1.249022332752006279e-68
9.275624999999990905e+01 -1.214100599238892533e-68
9.296999999999991360e+01 -9.059858345196891428e-69
9.318374999999988972e+01 -2.804742056031906739e-69
9.339749999999989427e+01 6.568470798217272936e-69
9.361124999999989882e+01 1.831957178589279849e-68
9.382499999999990337e+01 3.090863832585951440e-68
9.403874999999990791e+01 4.200410375011683498e-68
9.425249999999991246e+01 4.866119617386114267e-68
9.446624999999988859e+01 4.770017536990877997e-68
9.467999999999989313e+01 3.628330074283067494e-68
9.489374999999989768e+01 1.264731308776074733e-68
9.510749999999990223e+01 -2.310128315311397534e-68
9.532124999999990678e+01 -6.827018801123427362e-68
9.553499999999991132e+01 -1.171253936158619385e-67
9.574874999999988745e+01 -1.608924022791888611e-67
9.596249999999989200e+01 -1.883929360987614999e-67
9.617624999999989654e+01 -1.874325132111909274e-67
9.638999999999990109e+01 -1.469429305946303673e-67
9.660374999999990564e+01 -5.972846957749343322e-68
9.681749999999991019e+01 7.451922365275900700e-68
9.703124999999988631e+01 2.464581286880183983e-67
9.724499999999989086e+01 4.352547108672695864e-67
9.745874999999989541e+01 6.084033844820904484e-67
9.767249999999989996e+01 7.238881937473456627e-67
9.788624999999990450e+01 7.351488330173537205e-67
9.809999999999990905e+01 5.989141325367326535e-67
9.831374999999988518e+01 2.854007853860617530e-67
9.852749999999988972e+01 -2.103043704423181127e-67
9.874124999999989427e+01 -8.575582494532152426e-67
9.895499999999989882e+01 -1.582632222952526674e-66
9.916874999999990337e+01 -2.267100451051027416e-66
9.938249999999990791e+01 -2.754757592367325933e-66
9.959624999999988404e+01 -2.868938146780089383e-66
9.980999999999988859e+01 -2.440705144508661433e-66
1.000237499999998931e+02 -1.346338645007755331e-66
1.002374999999998977e+02 4.499421301628607069e-67
1.004512499999999022e+02 2.854712650434398986e-66
1.006649999999999068e+02 5.614488016215847675e-66
1.008787499999998829e+02 8.305545257747688784e-66
1.010924999999998875e+02 1.035441677060611774e-65
1.013062499999998920e+02 1.109664512738138855e-65
1.015199999999998965e+02 9.876531423849010240e-66
1.017337499999999011e+02 6.183347377435777825e-66
1.019474999999999056e+02 -1.896280443838362043e-67
1.021612499999999102e+02 -8.986702590857462599e-66
1.023749999999998863e+02 -1.936425635806238205e-65
1.025887499999998909e+02 -2.983601340279188379e-65
1.028024999999998954e+02 -3.832711323196673275e-65
1.030162499999999000e+02 -4.236748808852016925e-65
1.032299999999999045e+02 -3.943854243424832108e-65
1.034437499999999091e+02 -2.746154284109673853e-65
1.036574999999998852e+02 -5.383184967845018128e-66
1.038712499999998897e+02 2.622263031621099421e-65
1.040849999999998943e+02 6.465168514533626333e-65
1.042987499999998988e+02 1.048034624971579010e-64
1.045124999999999034e+02 1.392953955826786222e-64
1.047262499999999079e+02 1.590780540909542797e-64
1.049399999999998840e+02 1.546168691594925384e-64
1.051537499999998886e+02 1.176169684355423825e-64
1.053674999999998931e+02 4.314988835331618062e-65
1.055812499999998977e+02 -6.809276500134927190e-65
1.057949999999999022e+02 -2.078223073503329889e-64
1.060087499999999068e+02 -3.589521258050739193e-64
1.062224999999998829e+02 -4.957040907766350396e-64
1.064362499999998875e+02 -5.854902282408885492e-64
1.066499999999998920e+02 -5.928571349583166768e-64
1.068637499999998965e+02 -4.854751313320505896e-64
1.070774999999999011e+02 -2.417384357622782275e-64
1.072912499999999056e+02 1.409408862627864421e-64
1.075049999999998818e+02 6.385419918023082206e-64
1.077187499999998863e+02 1.195322038830717336e-63
1.079324999999998909e+02 1.723118153329656921e-63
1.081462499999998954e+02 2.106837496962918033e-63
1.083599999999999000e+02 2.217328420001454010e-63
1.085737499999999045e+02 1.931793321764961819e-63
1.087874999999998806e+02 1.160459139441767198e-63
1.090012499999998852e+02 -1.234980316223861491e-64
1.092149999999998897e+02 -1.855528495783056361e-63
1.094287499999998943e+02 -3.858982332831600500e-63
1.096424999999998988e+02 -5.839012776757001316e-63
1.098562499999999034e+02 -7.397661664432674056e-63
1.100699999999998795e+02 -8.074853695892482925e-63
1.102837499999998840e+02 -7.416594392122966284e-63
1.104974999999998886e+02 -5.066730123588439913e-63
1.107112499999998931e+02 -8.726276027861240571e-64
1.109249999999998977e+02 5.011122464374955978e-63
1.111387499999999022e+02 1.204222034242007745e-62
1.113524999999998784e+02 1.925768258448558637e-62
1.115662499999998829e+02 2.531198461850624451e-62
1.117799999999998875e+02 2.860430428099330115e-62
1.119937499999998920e+02 2.750163860526509508e-62
1.122074999999998965e+02 2.064800069606132187e-62
1.124212499999999011e+02 7.329370675483209276e-63
1.126349999999998772e+02 -1.215775271089243741e-62
1.128487499999998818e+02 -3.620559353971574248e-62
1.130624999999998863e+02 -6.174543692962141674e-62
1.132762499999998909e+02 -8.433198588585873044e-62
1.134899999999998954e+02 -9.852771927599411837e-62
1.137037499999999000e+02 -9.861726461996786289e-62
1.139174999999998761e+02 -7.962724743278705843e-62
1.141312499999998806e+02 -3.855824414089862562e-62
1.143449999999998852e+02 2.433900518798512123e-62
1.145587499999998897e+02 1.044782865812544977e-61
1.147724999999998943e+02 1.923230070274485823e-61
1.149862499999998988e+02 2.735257911994959162e-61
1.151999999999998749e+02 3.300568249914278861e-61
1.154137499999998795e+02 3.424419036072105261e-61
1.156274999999998840e+02 2.930549003475757830e-61
1.158412499999998886e+02 1.701832974720212822e-61
1.160549999999998931e+02 -2.766298494836577012e-62
1.162687499999998977e+02 -2.879586038915429506e-61
1.164824999999999022e+02 -5.818033917552820088e-61
1.166962499999998784e+02 -8.639466650234570032e-61
1.169099999999998829e+02 -1.076002167209833579e-60
1.171237499999998875e+02 -1.153310291042544345e-60
1.173374999999998920e+02 -1.035345578015780460e-60
1.175512499999998965e+02 -6.788398557041312567e-61
1.177649999999999011e+02 -7.198073399315808237e-62
1.179787499999998772e+02 7.527171507440567685e-61
1.181924999999998818e+02 1.709818856949425811e-60
1.184062499999998863e+02 2.659759021584161836e-60
1.186199999999998909e+02 3.417718996908315512e-60
1.188337499999998954e+02 3.774231830822450861e-60
1.190474999999999000e+02 3.527417564530291978e-60
1.192612499999998761e+02 2.524454776590098387e-60
1.194749999999998806e+02 7.073036276214531554e-61
1.196887499999998852e+02 -1.844779738965796212e-60
1.199024999999998897e+02 -4.885235787626828955e-60
1.201162499999998943e+02 -7.992631579080987426e-60
1.203299999999998988e+02 -1.059436475486411373e-59
1.205437499999998749e+02 -1.202730605120283835e-59
1.207574999999998795e+02 -1.163573331926328754e-59
1.209712499999998840e+02 -8.899795915241581153e-60
1.211849999999998886e+02 -3.579630411128753518e-60
1.213987499999998931e+02 4.147618843874699833e-60
1.216124999999998977e+02 1.358662555241792730e-59
1.218262499999998738e+02 2.348967640812680890e-59
1.220399999999998784e+02 3.211766167904103283e-59
1.222537499999998829e+02 3.741518900946433393e-59
1.224674999999998875e+02 3.730279238519496800e-59
1.226812499999998920e+02 3.006755539122073658e-59
1.228949999999998965e+02 1.480849214729019873e-59
1.231087499999998727e+02 -8.131490817839544807e-60
1.233224999999998772e+02 -3.683439795277048097e-59
1.235362499999998818e+02 -6.767246373770899049e-59
1.237499999999998863e+02 -9.545833021630489810e-59
1.239637499999998909e+02 -1.139416248392164531e-58
1.241774999999998954e+02 -1.166663280237138084e-58
1.243912499999998715e+02 -9.813849509517943741e-59
1.246049999999998761e+02 -5.517834259445693968e-59
1.248187499999998806e+02 1.174437533360856602e-59
1.250324999999998852e+02 9.745276339930523188e-59
1.252462499999998897e+02 1.915726182904360099e-58
1.254599999999998943e+02 2.788812462035629435e-58
1.256737499999998704e+02 3.406908761619732701e-58
1.258874999999998749e+02 3.573251063370797987e-58
1.261012499999998795e+02 3.115557246949057916e-58
1.263149999999998840e+02 1.926421949453179776e-58
1.265287499999998886e+02 3.897799396763685614e-61