2.024999999999579359e-01 -2.492886353161542162e-103
4.162499999999482725e-01 -2.881198989878634642e-103
6.299999999999528200e-01 -2.451469107489206928e-103
8.437499999999573674e-01 -6.048876397411435286e-104
1.057499999999947704e+00 3.237035239523411077e-103
1.271249999999952252e+00 9.374747529498540092e-103
1.484999999999956799e+00 1.744809109737554078e-102
1.698749999999947136e+00 2.597148688467046456e-102
1.912499999999951683e+00 3.190239626880818420e-102
2.126249999999956231e+00 3.045021570977410135e-102
2.339999999999946567e+00 1.542220275705964943e-102
2.553749999999951115e+00 -1.954839527802164270e-102
2.767499999999955662e+00 -7.859548911952123633e-102
2.981249999999945999e+00 -1.599504723605194817e-101
3.194999999999950546e+00 -2.513603372979146027e-101
3.408749999999955094e+00 -3.256208810733519289e-101
3.622499999999945430e+00 -3.381100633202499943e-101
3.836249999999949978e+00 -2.290588483688995242e-101
4.049999999999954525e+00 6.620169207389265060e-102
4.263749999999944862e+00 5.961293276329145820e-101
4.477499999999949409e+00 1.359902702445387602e-100
4.691249999999953957e+00 2.265063313866085145e-100
4.904999999999944293e+00 3.084446247096814453e-100
5.118749999999948841e+00 3.428541371521258661e-100
5.332499999999953388e+00 2.757074494881911607e-100
5.546249999999943725e+00 4.584290778297478053e-101
5.759999999999948272e+00 -3.976665703782116832e-100
5.973749999999952820e+00 -1.067493408336431095e-99
6.187499999999943157e+00 -1.901216387800785108e-99
6.401249999999947704e+00 -2.722362710796676118e-99
6.614999999999952252e+00 -3.212328512034796980e-99
6.828749999999942588e+00 -2.912671826135644911e-99
7.042499999999947136e+00 -1.281674650909983578e-99
7.256249999999951683e+00 2.171954024154660465e-99
7.469999999999942020e+00 7.665757326829283515e-99
7.683749999999946567e+00 1.484143553488172266e-98
7.897499999999951115e+00 2.243260786829416259e-98
8.111249999999941451e+00 2.800070233441565527e-98
8.324999999999945999e+00 2.788972298249576256e-98
8.538749999999950546e+00 1.758892631457300993e-98
8.752499999999940883e+00 -7.308432054754136648e-99
8.966249999999945430e+00 -4.943196982032209057e-98
9.179999999999949978e+00 -1.072947588719918493e-97
9.393749999999940314e+00 -1.726123099972863646e-97
9.607499999999944862e+00 -2.279758588258569551e-97
9.821249999999949409e+00 -2.459804959145914429e-97
1.003499999999993975e+01 -1.912279996994853278e-97
1.024874999999994429e+01 -2.668129789461589817e-98
1.046249999999994884e+01 2.745731557138043536e-97
1.067624999999993918e+01 7.122037170013805121e-97
1.088999999999994373e+01 1.238109416228724948e-96
1.110374999999994827e+01 1.737088062607582474e-96
1.131749999999993861e+01 2.016279035510700596e-96
1.153124999999994316e+01 1.813525100217547708e-96
1.174499999999994770e+01 8.357445713096154612e-97
1.195874999999993804e+01 -1.163754164655510920e-96
1.217249999999994259e+01 -4.266850987246888099e-96
1.238624999999994714e+01 -8.241306517690885666e-96
1.259999999999993747e+01 -1.238862825975201596e-95
1.281374999999994202e+01 -1.543834425488873557e-95
1.302749999999994657e+01 -1.555770366288880379e-95
1.324124999999995111e+01 -1.055663620505004261e-95
1.345499999999994145e+01 1.640281351596082977e-96
1.366874999999994600e+01 2.222069718547735514e-95
1.388249999999995055e+01 5.045143994906968968e-95
1.409624999999994088e+01 8.254167111223534639e-95
1.430999999999994543e+01 1.107026004722260208e-94
1.452374999999994998e+01 1.228511348214722128e-94
1.473749999999994031e+01 1.035086585387397441e-94
1.495124999999994486e+01 3.644317853773066643e-95
1.516499999999994941e+01 -9.057965460627748147e-95
1.537874999999993975e+01 -2.789988873737381805e-94
1.559249999999994429e+01 -5.113804330588160819e-94
1.580624999999994884e+01 -7.437707356322714701e-94
1.601999999999993918e+01 -9.012429082102324391e-94
1.623374999999994373e+01 -8.802859601858164111e-94
1.644749999999994827e+01 -5.620241111222113102e-94
1.666124999999993861e+01 1.604507110032298143e-94
1.687499999999994316e+01 1.339584245537072276e-93
1.708874999999994770e+01 2.918758428491092926e-93
1.730249999999993804e+01 4.674592282261519227e-93
1.751624999999994259e+01 6.172337953144232067e-93
1.772999999999994714e+01 6.757544521291983758e-93
1.794374999999993747e+01 5.611588889519980633e-93
1.815749999999994202e+01 1.897397846121116019e-93
1.837124999999994657e+01 -4.988790352355150211e-93
1.858499999999993690e+01 -1.506643340289306503e-92
1.879874999999994145e+01 -2.736327196675004078e-92
1.901249999999994600e+01 -3.954138960897498721e-92
1.922624999999993634e+01 -4.769748131199132589e-92
1.943999999999994088e+01 -4.651915410485227507e-92
1.965374999999994543e+01 -2.999076674479825811e-92
1.986749999999993577e+01 7.199140762474020863e-93
2.008124999999994031e+01 6.751443381086977786e-92
2.029499999999994486e+01 1.478660373256009352e-91
2.050874999999993520e+01 2.368136364052285203e-91
2.072249999999993975e+01 3.124901236175184832e-91
2.093624999999994429e+01 3.423883430821813165e-91
2.114999999999993463e+01 2.863327046533813347e-91
2.136374999999993918e+01 1.038474940069859131e-91
2.157749999999994373e+01 -2.334336059260156396e-91
2.179124999999993406e+01 -7.248234938579329196e-91
2.200499999999993861e+01 -1.321372443226550537e-90
2.221874999999994316e+01 -1.908888782043580653e-90
2.243249999999993349e+01 -2.299979246017055071e-90
2.264624999999993804e+01 -2.243583744700280820e-90
2.285999999999994259e+01 -1.460618088037872498e-90
2.307374999999993292e+01 2.881360994382502195e-91
2.328749999999993747e+01 3.101787177832780108e-90
2.350124999999994202e+01 6.816659573651971685e-90
2.371499999999993236e+01 1.088461429124265919e-89
2.392874999999993690e+01 1.429078209714653426e-89
2.414249999999994145e+01 1.556188574256174829e-89
2.435624999999993179e+01 1.292140001280017776e-89
2.456999999999993634e+01 4.638623811186330588e-90
2.478374999999994088e+01 -1.041100457184128928e-89
2.499749999999993122e+01 -3.201126754104117039e-89
2.521124999999993577e+01 -5.781067092398096332e-89
2.542499999999994031e+01 -8.267414986890136119e-89
2.563874999999993065e+01 -9.847316236790812594e-89
2.585249999999993520e+01 -9.465684573623234809e-89
2.606624999999993975e+01 -5.992365383991639405e-89
2.627999999999994429e+01 1.482330544074443384e-89
2.649374999999993463e+01 1.323319196327697875e-88
2.670749999999993918e+01 2.841849442388099801e-88
2.692124999999994373e+01 4.463566991756979195e-88
2.713499999999993406e+01 5.767226607286120744e-88
2.734874999999993861e+01 6.164867960055244777e-88
2.756249999999994316e+01 4.975154195020025249e-88
2.777624999999993349e+01 1.570010423746570419e-88
2.798999999999993804e+01 -4.404627368685105259e-88
2.820374999999994259e+01 -1.275499226523755075e-87
2.841749999999993292e+01 -2.246240159420763601e-87
2.863124999999993747e+01 -3.148388545790029702e-87
2.884499999999994202e+01 -3.673713383073834354e-87
2.905874999999993236e+01 -3.438541747596566430e-87
2.927249999999993690e+01 -2.051799078632721927e-87
2.948624999999994145e+01 7.739208888618458502e-88
2.969999999999993179e+01 5.075491009713543655e-87
2.991374999999993634e+01 1.047873949650387258e-86
3.012749999999994088e+01 1.606359146181031454e-86
3.034124999999993122e+01 2.030976834011857485e-86
3.055499999999993577e+01 2.118648610358595299e-86
3.076874999999994031e+01 1.644441041760097615e-86
3.098249999999993065e+01 4.142776843975434069e-87
3.119624999999993520e+01 -1.660516110373368808e-86
3.140999999999993975e+01 -4.475881767613350189e-86
3.162374999999993008e+01 -7.652923280867457180e-86
3.183749999999993463e+01 -1.048791548662946327e-85
3.205124999999993918e+01 -1.196744023296470359e-85
3.226499999999992951e+01 -1.088170394488233911e-85
3.247874999999993406e+01 -6.059557798211363279e-86
3.269249999999993861e+01 3.273025784862834800e-86
3.290624999999992895e+01 1.704388806618171676e-85
3.311999999999993349e+01 3.387261789952767266e-85
3.333374999999993804e+01 5.072066869398482211e-85
3.354749999999992838e+01 6.281722104439251605e-85
3.376124999999993292e+01 6.403732093119643841e-85
3.397499999999993747e+01 4.787847343521748418e-85
3.418874999999992781e+01 9.092783835922994455e-86
3.440249999999993236e+01 -5.412322493516080303e-85
3.461624999999993690e+01 -1.376920665868660012e-84
3.482999999999992724e+01 -2.295255224900483695e-84
3.504374999999993179e+01 -3.084744030041137452e-84
3.525749999999993634e+01 -3.452514158967542417e-84
3.547124999999992667e+01 -3.061548568074546887e-84
3.568499999999993122e+01 -1.600848139403038240e-84
3.589874999999993577e+01 1.113149984602944079e-84
3.611249999999992610e+01 5.015273889238984538e-84
3.632624999999993065e+01 9.673600401503342026e-84
3.653999999999993520e+01 1.420955425625658706e-83
3.675374999999992554e+01 1.729916789652182977e-83
3.696749999999993008e+01 1.729912471175851675e-83
3.718124999999993463e+01 1.252988233629375208e-83
3.739499999999992497e+01 1.721724413680984683e-84
3.760874999999992951e+01 -1.541267992574321984e-83
3.782249999999993406e+01 -3.757036003705356281e-83
3.803624999999993861e+01 -6.136447813218115999e-83
3.824999999999994316e+01 -8.114290736216854120e-83
3.846374999999991928e+01 -8.933541126218958139e-83
3.867749999999992383e+01 -7.751434849305442352e-83
3.889124999999992838e+01 -3.825433386790651277e-83
3.910499999999993292e+01 3.229937178280220185e-83
3.931874999999993747e+01 1.314871418684081469e-82
3.953249999999994202e+01 2.474280820171706869e-82
3.974624999999991815e+01 3.574179075495864353e-82
3.995999999999992269e+01 4.284497464338093156e-82
4.017374999999992724e+01 4.208240519572854114e-82
4.038749999999993179e+01 2.954689473787751911e-82
4.060124999999993634e+01 2.489769101936225718e-83
4.081499999999994088e+01 -3.933041974934509371e-82
4.102874999999991701e+01 -9.228341085917489031e-82
4.124249999999992156e+01 -1.478507830842652672e-81
4.145624999999992610e+01 -1.924134317026485045e-81
4.166999999999993065e+01 -2.083135160434638044e-81
4.188374999999993520e+01 -1.765550204081234283e-81
4.209749999999993975e+01 -8.124701146369199894e-82
4.231124999999991587e+01 8.452711275981072592e-82
4.252499999999992042e+01 3.122792474134691986e-81
4.273874999999992497e+01 5.725803995509952789e-81
4.295249999999992951e+01 8.123672025839332178e-81
4.316624999999993406e+01 9.572522668244742113e-81
4.337999999999993861e+01 9.207328352158163024e-81
4.359374999999991473e+01 6.212785199801699859e-81
4.380749999999991928e+01 6.642817938746412843e-83
4.402124999999992383e+01 -9.175318191214266883e-81
4.423499999999992838e+01 -2.060360713730838280e-80
4.444874999999993292e+01 -3.227577151869385789e-80
4.466249999999993747e+01 -4.122033479279787955e-80
4.487624999999991360e+01 -4.371920823673063743e-80
4.508999999999991815e+01 -3.592820645908929519e-80
4.530374999999992269e+01 -1.483637418115415922e-80
4.551749999999992724e+01 2.052586282828504058e-80
4.573124999999993179e+01 6.783026352459228407e-80
4.594499999999993634e+01 1.204572873407094728e-79
4.615874999999991246e+01 1.671579685627547104e-79
4.637249999999991701e+01 1.927791329319458911e-79
4.658624999999992156e+01 1.803740240945564422e-79
4.679999999999992610e+01 1.148070596740987865e-79
4.701374999999993065e+01 -1.238357438144768585e-80
4.722749999999993520e+01 -1.975494344649398783e-79
4.744124999999993975e+01 -4.200852854451478640e-79
4.765499999999991587e+01 -6.397359361426560524e-79
4.786874999999992042e+01 -7.977943534394363701e-79
4.808249999999992497e+01 -8.237250395087341539e-79
4.829624999999992951e+01 -6.480392607946530832e-79
4.850999999999993406e+01 -2.209878783656965346e-79
4.872374999999993861e+01 4.651029412844943471e-79
4.893749999999991473e+01 1.354011884696246848e-78
4.915124999999991928e+01 2.310293366524916463e-78
4.936499999999992383e+01 3.117502749559667749e-78
4.957874999999992838e+01 3.496773511066443087e-78
4.979249999999993292e+01 3.150362572545964473e-78
5.000624999999993747e+01 1.830369549456805988e-78
5.021999999999991360e+01 -5.736732356248590008e-79
5.043374999999991815e+01 -3.942504879390075565e-78
5.064749999999992269e+01 -7.852067026452524371e-78
5.086124999999992724e+01 -1.154318181389713074e-77
5.107499999999993179e+01 -1.396443241945427282e-77
5.128874999999993634e+01 -1.391061143887050143e-77
5.150249999999991246e+01 -1.026437401453421791e-77
5.171624999999991701e+01 -2.325292701425248796e-78
5.192999999999992156e+01 9.819458984311970048e-78
5.214374999999992610e+01 2.496018215194557598e-77
5.235749999999993065e+01 4.056860698323779097e-77
5.257124999999993520e+01 5.285431058127409166e-77
5.278499999999991132e+01 5.717276748708160690e-77
5.299874999999991587e+01 4.883748429950302570e-77
5.321249999999992042e+01 2.430734547841020719e-77
5.342624999999992497e+01 -1.738992559754421280e-77
5.363999999999992951e+01 -7.326060583125093230e-77
5.385374999999993406e+01 -1.353466840088415637e-76
5.406749999999991019e+01 -1.905615083827558291e-76
5.428124999999991473e+01 -2.217718692204105041e-76
5.449499999999991928e+01 -2.103995934508371815e-76
5.470874999999992383e+01 -1.405439979947950429e-76
5.492249999999992838e+01 -4.234638280700803104e-78
5.513624999999993292e+01 1.930396200841130827e-76
5.534999999999990905e+01 4.278254755247340345e-76
5.556374999999991360e+01 6.568304731868763989e-76
5.577749999999991815e+01 8.193107953075831875e-76
5.599124999999992269e+01 8.449696622943922197e-76
5.620499999999992724e+01 6.677415500382562916e-76
5.641874999999993179e+01 2.444883498786394525e-76
5.663249999999990791e+01 -4.240503667803404580e-76
5.684624999999991246e+01 -1.274440721991991373e-75
5.705999999999991701e+01 -2.169609488354752952e-75
5.727374999999992156e+01 -2.901967793594690126e-75
5.748749999999992610e+01 -3.215867212517332174e-75
5.770124999999993065e+01 -2.851966920062639948e-75
5.791499999999990678e+01 -1.611592306618908382e-75
5.812874999999991132e+01 5.667682455996414899e-76
5.834249999999991587e+01 3.533142754203759781e-75
5.855624999999992042e+01 6.873803136495356865e-75
5.876999999999992497e+01 9.903758927558503973e-75
5.898374999999992951e+01 1.172498881057592592e-74
5.919749999999990564e+01 1.136353951940120381e-74
5.941124999999991019e+01 7.984105054705820251e-75
5.962499999999991473e+01 1.160391081625104950e-75
5.983874999999991928e+01 -8.843794462646408265e-75
6.005249999999992383e+01 -2.084953489043561235e-74
6.026624999999992838e+01 -3.267461181682683692e-74
6.047999999999990450e+01 -4.126210766791910949e-74
6.069374999999990905e+01 -4.308440885506843729e-74
6.090749999999991360e+01 -3.483600143795461481e-74
6.112124999999991815e+01 -1.436091484288814828e-74
6.133499999999992269e+01 1.832137383512288610e-74
6.154874999999992724e+01 6.010956025904130642e-74
6.176249999999993179e+01 1.043123752100887362e-73
6.197624999999990791e+01 1.408329496934425756e-73
6.218999999999991246e+01 1.572876226457201258e-73
6.240374999999991701e+01 1.411660536401401441e-73
6.261749999999992156e+01 8.292153686771695370e-74
6.283124999999992610e+01 -2.039970710927452653e-74
6.304499999999993065e+01 -1.616788178259505482e-73
6.325874999999990678e+01 -3.213295186030486027e-73
6.347249999999991132e+01 -4.670370949457596570e-73
6.368624999999991587e+01 -5.565768491862428118e-73
6.389999999999992042e+01 -5.442752522431078974e-73
6.411374999999992497e+01 -3.909966920999690575e-73
6.432749999999992951e+01 -7.660928402408553457e-74
6.454124999999990564e+01 3.871644622581246637e-73
6.475499999999991019e+01 9.465586289263574502e-73
6.496874999999991473e+01 1.501863584451088245e-72
6.518249999999991928e+01 1.913354669542573041e-72
6.539624999999992383e+01 2.019587340354350968e-72
6.560999999999992838e+01 1.668556251294870247e-72
6.582374999999990450e+01 7.592265012014168114e-73
6.603749999999990905e+01 -7.126343890710350735e-73
6.625124999999991360e+01 -2.613915962900438770e-72
6.646499999999991815e+01 -4.651075012394004828e-72
6.667874999999992269e+01 -6.377252176981521017e-72
6.689249999999992724e+01 -7.240040527242268453e-72
6.710624999999990337e+01 -6.674542784274425144e-72
6.731999999999990791e+01 -4.237080257312272171e-72
6.753374999999991246e+01 2.369217388288451823e-73
6.774749999999991701e+01 6.479863861550111338e-72
6.796124999999992156e+01 1.368310611648238549e-71
6.817499999999992610e+01 2.047658417458712371e-71
6.838874999999990223e+01 2.503720439443800708e-71
6.860249999999990678e+01 2.535092602353927245e-71
6.881624999999991132e+01 1.962590917582298644e-71
6.902999999999991587e+01 6.816363064310637736e-72
6.924374999999992042e+01 -1.282606422759507703e-71
6.945749999999992497e+01 -3.729595087586936220e-71
6.967124999999990109e+01 -6.262063934435018128e-71
6.988499999999990564e+01 -8.303683475496961962e-71
7.009874999999991019e+01 -9.166807238570937076e-71
7.031249999999991473e+01 -8.173664012496743406e-71
7.052624999999991928e+01 -4.822825077861097778e-71
7.073999999999992383e+01 1.021260193033231238e-71
7.095374999999989996e+01 8.952009719988249245e-71
7.116749999999990450e+01 1.790498898137517365e-70
7.138124999999990905e+01 2.615379904256804625e-70
7.159499999999991360e+01 3.146175806530624241e-70
7.180874999999991815e+01 3.141352518642491298e-70
7.202249999999992269e+01 2.391738949437031104e-70
7.223624999999989882e+01 7.824982541646602411e-71
7.244999999999990337e+01 -1.643290384946246330e-70
7.266374999999990791e+01 -4.633808617689133041e-70
7.287749999999991246e+01 -7.707255763138616633e-70
7.309124999999991701e+01 -1.017642595449318587e-69
7.330499999999992156e+01 -1.123073260656765186e-69
7.351874999999989768e+01 -1.007823876172410343e-69
7.373249999999990223e+01 -6.137193910931465577e-70
7.394624999999990678e+01 7.488975094919100146e-71
7.415999999999991132e+01 1.011382699939212556e-69
7.437374999999991587e+01 2.074123532327311814e-69
7.458749999999992042e+01 3.066277702664364784e-69
7.480124999999992497e+01 3.732903922352710976e-69
7.501499999999990109e+01 3.797788597277950703e-69
7.522874999999990564e+01 3.018850921214799370e-69
7.544249999999991019e+01 1.256249318229974781e-69
7.565624999999991473e+01 -1.457738089336230868e-69
7.586999999999991928e+01 -4.862373489759092179e-69
7.608374999999992383e+01 -8.443443968440226219e-69
7.629749999999989996e+01 -1.145665462249304191e-68
7.651124999999990450e+01 -1.301167177833015273e-68
7.672499999999990905e+01 -1.221970164610519851e-68
7.693874999999991360e+01 -8.394144874342034544e-69
7.715249999999991815e+01 -1.278150490354198907e-69
7.736624999999992269e+01 8.742475394950196769e-69
7.757999999999989882e+01 2.049397809062241440e-68
7.779374999999990337e+01 3.199348760945118782e-68
7.800749999999990791e+01 4.060058692694901671e-68
7.822124999999991246e+01 4.336870275001769628e-68
7.843499999999991701e+01 3.758836956317713676e-68
7.864874999999992156e+01 2.146904107709839691e-68
7.886249999999989768e+01 -5.143028287586175546e-69
7.907624999999990223e+01 -4.015660215969768229e-68
7.928999999999990678e+01 -7.890860087407804481e-68
7.950374999999991132e+01 -1.142869737696974270e-67
7.971749999999991587e+01 -1.374303882002369749e-67
7.993124999999992042e+01 -1.390486876559537378e-67
8.014499999999989654e+01 -1.112874521472553990e-67
8.035874999999990109e+01 -4.991585658034157067e-68
8.057249999999990564e+01 4.352691996822517545e-68
8.078624999999991019e+01 1.601038103919850216e-67
8.099999999999991473e+01 2.828935534709150163e-67
8.121374999999991928e+01 3.879170990475248242e-67
8.142749999999989541e+01 4.468775949398061065e-67
8.164124999999989996e+01 4.317248358886166557e-67
8.185499999999990450e+01 3.206693528947454072e-67
8.206874999999990905e+01 1.048421180422537379e-67
8.228249999999991360e+01 -2.055989032047332123e-67
8.249624999999991815e+01 -5.773794579320706266e-67
8.270999999999989427e+01 -9.535402026380264496e-67
8.292374999999989882e+01 -1.257626015008990895e-66
8.313749999999990337e+01 -1.403262778521652509e-66
8.335124999999990791e+01 -1.308823108904475161e-66
8.356499999999991246e+01 -9.157323926968777311e-67
8.377874999999991701e+01 -2.077675574089560118e-67
8.399249999999989313e+01 7.723116064711591061e-67
8.420624999999989768e+01 1.913019264208156919e-66
8.441999999999990223e+01 3.035368176781417383e-66
8.463374999999990678e+01 3.908122997998061526e-66
8.484749999999991132e+01 4.278200848446403146e-66
8.506124999999991587e+01 3.914603913391688300e-66
8.527499999999989200e+01 2.661074688439158746e-66
8.548874999999989654e+01 4.895282702089883171e-67
8.570249999999990109e+01 -2.456112597955476020e-66
8.591624999999990564e+01 -5.837091388748413125e-66
8.612999999999991019e+01 -9.128470731180946522e-66
8.634374999999991473e+01 -1.166646775280794389e-65
8.655749999999989086e+01 -1.273611055570892124e-65
8.677124999999989541e+01 -1.169348448246537787e-65
8.698499999999989996e+01 -8.108636939550542766e-66
8.719874999999990450e+01 -1.907564182368130837e-66
8.741249999999990905e+01 6.513769913589276665e-66
8.762624999999991360e+01 1.623214823503971687e-65
8.783999999999991815e+01 2.582203472397006753e-65
8.805374999999989427e+01 3.347938117973973580e-65
8.826749999999989882e+01 3.724693949610703202e-65
8.848124999999990337e+01 3.532593976737911102e-65
8.869499999999990791e+01 2.643991110846494827e-65
8.890874999999991246e+01 1.019921473083157624e-65
8.912249999999991701e+01 -1.259700014692883761e-65
8.933624999999989313e+01 -3.978806268948809670e-65
8.954999999999989768e+01 -6.786757367400986828e-65
8.976374999999990223e+01 -9.222832409802375483e-65
8.997749999999990678e+01 -1.076480707025826982e-64
9.019124999999991132e+01 -1.089919811513627513e-64
9.040499999999991587e+01 -9.206926666562924393e-65
9.061874999999989200e+01 -5.454640810353991530e-65
9.083249999999989654e+01 3.207020751611523338e-66
9.104624999999990109e+01 7.747709289725465725e-65
9.125999999999990564e+01 1.609031732727338998e-64
9.147374999999991019e+01 2.426294494676842245e-64
9.168749999999991473e+01 3.089909016983189729e-64
9.190124999999989086e+01 3.447676233214725620e-64
9.211499999999989541e+01 3.349857080721646439e-64
9.232874999999989996e+01 2.671805572377224261e-64
9.254249999999990450e+01 1.339703484947583829e-64
9.275624999999990905e+01 -6.428681581819181116e-65
9.296999999999991360e+01 -3.170591715412636744e-64
9.318374999999988972e+01 -6.018226352391596649e-64
9.339749999999989427e+01 -8.833289369375429644e-64
9.361124999999989882e+01 -1.114489851421937862e-63
9.382499999999990337e+01 -1.239412801156691775e-63
9.403874999999990791e+01 -1.199038072443692075e-63
9.425249999999991246e+01 -9.396078195577656233e-64
9.446624999999988859e+01 -4.238038629275088848e-64
9.467999999999989313e+01 3.561916724210245428e-64
9.489374999999989768e+01 1.365208718757095840e-63
9.510749999999990223e+01 2.513507659388394617e-63
9.532124999999990678e+01 3.650213956328226999e-63
9.553499999999991132e+01 4.565382777471593211e-63
9.574874999999988745e+01 5.004277030662001998e-63
9.596249999999989200e+01 4.696612166957614817e-63
9.617624999999989654e+01 3.401682940844190435e-63
9.638999999999990109e+01 9.673683929578891690e-64
9.660374999999990564e+01 -2.602843130234715742e-63
9.681749999999991019e+01 -7.085026918582530428e-63
9.703124999999988631e+01 -1.198653139454496303e-62
9.724499999999989086e+01 -1.653141673501365301e-62
9.745874999999989541e+01 -1.969720384395948693e-62
9.767249999999989996e+01 -2.031726751977305523e-62
9.788624999999990450e+01 -1.725545943244599825e-62
9.809999999999990905e+01 -9.647063864737387255e-63
9.831374999999988518e+01 2.816312160401357497e-63
9.852749999999988972e+01 1.959893168891234959e-62
9.874124999999989427e+01 3.908880361209925009e-62
9.895499999999989882e+01 5.849216483591502507e-62
9.916874999999990337e+01 7.392775770473056070e-62
9.938249999999990791e+01 8.078174179801499545e-62
9.959624999999988404e+01 7.435388581276756052e-62
9.980999999999988859e+01 5.077697324361582158e-62
1.000237499999998931e+02 8.127152124074324096e-63
1.002374999999998977e+02 -5.242921294998608803e-62
1.004512499999999022e+02 -1.256746189487748647e-61
1.006649999999999068e+02 -2.018357082746431633e-61
1.008787499999998829e+02 -2.668148834298946190e-61
1.010924999999998875e+02 -3.033935780722944409e-61
1.013062499999998920e+02 -2.935315739447066339e-61
1.015199999999998965e+02 -2.217077360029277267e-61
1.017337499999999011e+02 -7.901203421081117768e-62
1.019474999999999056e+02 1.325655064719407416e-61
1.021612499999999102e+02 3.964520966270952134e-61
1.023749999999998863e+02 6.793949111065056656e-61
1.025887499999998909e+02 9.319681915789893256e-61
1.028024999999998954e+02 1.092548412271947935e-60
1.030162499999999000e+02 1.095231058913457723e-60
1.032299999999999045e+02 8.815315678052229819e-61
1.034437499999999091e+02 4.148826889790769273e-61
1.036574999999998852e+02 -3.039911938981271028e-61
1.038712499999998897e+02 -1.223621161373403889e-60
1.040849999999998943e+02 -2.233687421988429687e-60
1.042987499999998988e+02 -3.165839786625678741e-60
1.045124999999999034e+02 -3.806506713252031760e-60
1.047262499999999079e+02 -3.923426152058916085e-60
1.049399999999998840e+02 -3.305473237313171708e-60
1.051537499999998886e+02 -1.812515011223547624e-60
1.053674999999998931e+02 5.711749875870786736e-61
1.055812499999998977e+02 3.689434312835267888e-60
1.057949999999999022e+02 7.184329717920329675e-60
1.060087499999999068e+02 1.049612922768378804e-59
1.062224999999998829e+02 1.290369442629779722e-59
1.064362499999998875e+02 1.361144065802577902e-59
1.066499999999998920e+02 1.188179745158525082e-59
1.068637499999998965e+02 7.202568728782094535e-60
1.070774999999999011e+02 -5.321402214811350990e-61
1.072912499999999056e+02 -1.085894326270339193e-59
1.075049999999998818e+02 -2.263903585661823898e-59
1.077187499999998863e+02 -3.404990826072217384e-59
1.079324999999998909e+02 -4.271051293313621146e-59
1.081462499999998954e+02 -4.596105149773854641e-59
1.083599999999999000e+02 -4.129486667305143686e-59
1.085737499999999045e+02 -2.690858945144824233e-59
1.087874999999998806e+02 -2.301380386519310576e-60
1.090012499999998852e+02 3.117943958493592223e-59
1.092149999999998897e+02 6.997349420421222426e-59
1.094287499999998943e+02 1.082575892206915929e-58
1.096424999999998988e+02 1.383282934153894384e-58
1.098562499999999034e+02 1.514875713152041513e-58
1.100699999999998795e+02 1.394257467444457829e-58
1.102837499999998840e+02 9.599493477933614012e-59
1.104974999999998886e+02 1.915217210332539956e-59
1.107112499999998931e+02 -8.725665725626688513e-59
1.109249999999998977e+02 -2.122797495889485879e-58
1.111387499999999022e+02 -3.376405432847699160e-58
1.113524999999998784e+02 -4.388940629296168325e-58
1.115662499999998829e+02 -4.881876115179792173e-58
1.117799999999998875e+02 -4.586123343931237082e-58
1.119937499999998920e+02 -3.298116894808259416e-58
1.122074999999998965e+02 -9.415277581997800445e-59
1.124212499999999011e+02 2.375743773931556747e-58
1.126349999999998772e+02 6.322117110629672819e-58
1.128487499999998818e+02 1.033397946997961693e-57
1.130624999999998863e+02 1.365027314954177680e-57
1.132762499999998909e+02 1.539723202691918494e-57
1.134899999999998954e+02 1.472290641703738901e-57
1.137037499999999000e+02 1.097115339690174572e-57
1.139174999999998761e+02 3.873621980954083217e-58
1.141312499999998806e+02 -6.272239063271439096e-58
1.143449999999998852e+02 -1.847868412952536499e-57
1.145587499999998897e+02 -3.103839128471504346e-57
1.147724999999998943e+02 -4.162673241260103415e-57
1.149862499999998988e+02 -4.755765053197050227e-57
1.151999999999998749e+02 -4.619201340287813989e-57
1.154137499999998795e+02 -3.546696132058003244e-57
1.156274999999998840e+02 -1.448098128797480691e-57
1.158412499999998886e+02 1.596219089591767052e-57
1.160549999999998931e+02 5.297028744057011282e-57
1.162687499999998977e+02 9.146544689550777635e-57
1.164824999999999022e+02 1.244823771278999778e-56
1.166962499999998784e+02 1.439275336770750766e-56
1.169099999999998829e+02 1.417954724016707234e-56
1.171237499999998875e+02 1.117479503640329713e-56
1.173374999999998920e+02 5.086110443550286440e-57
1.175512499999998965e+02 -3.874717472891578259e-57
1.177649999999999011e+02 -1.487632743018686752e-56
1.179787499999998772e+02 -2.643677697844451979e-56
1.181924999999998818e+02 -3.650894016235197881e-56
1.184062499999998863e+02 -4.270151233916589169e-56
1.186199999999998909e+02 -4.263434076455136201e-56
1.188337499999998954e+02 -3.440031913957101306e-56
1.190474999999999000e+02 -1.707694992787642529e-56
1.192612499999998761e+02 8.796234514873837940e-57
1.194749999999998806e+02 4.087697895521587721e-56
1.196887499999998852e+02 7.492346503779794542e-56
1.199024999999998897e+02 1.050335833288908228e-55
1.201162499999998943e+02 1.242753801394284115e-55
1.203299999999998988e+02 1.257047529996560959e-55
1.205437499999998749e+02 1.036906243427715139e-55
1.207574999999998795e+02 5.538479602455388447e-56
1.209712499999998840e+02 -1.790259272218416204e-56
1.211849999999998886e+02 -1.097138792973966215e-55
1.213987499999998931e+02 -2.081450362051550499e-55
1.216124999999998977e+02 -2.964985446958268999e-55
1.218262499999998738e+02 -3.550438683624604877e-55
1.220399999999998784e+02 -3.638750626002738862e-55
1.222537499999998829e+02 -3.066420514663943864e-55
1.224674999999998875e+02 -1.746997590816293521e-55
1.226812499999998920e+02 2.899345058641852004e-56
1.228949999999998965e+02 2.870432473509148873e-55
1.231087499999998727e+02 5.667013916988038061e-55
1.233224999999998772e+02 8.215922216296050677e-55
1.235362499999998818e+02 9.965212184443504339e-55
1.237499999999998863e+02 1.035343730635194911e-54
1.239637499999998909e+02 8.912846728568431531e-55
1.241774999999998954e+02 5.384604053133650477e-55
1.243912499999998715e+02 -1.723123027496244258e-56
1.246049999999998761e+02 -7.300909423320644504e-55
1.248187499999998806e+02 -1.511801425770856711e-54
1.250324999999998852e+02 -2.235828057867383888e-54
1.252462499999998897e+02 -2.750260056372686055e-54
1.254599999999998943e+02 -2.899070288374369650e-54
1.256737499999998704e+02 -2.550180065679539245e-54
1.258874999999998749e+02 -1.626979761476302844e-54
1.261012499999998795e+02 -1.383639957718921992e-55
1.263149999999998840e+02 1.798768532092848481e-54
1.265287499999998886e+02 3.950882273464789479e-54
1.267424999999998931e+02 5.978542604539165531e-54