2.024999999999579359e-01 -1.456956786042800689e-96
4.162499999999482725e-01 -2.036607757389524566e-96
6.299999999999528200e-01 -2.265620005272235693e-96
8.437499999999573674e-01 -1.730551498676967299e-96
1.057499999999947704e+00 2.429853109566668824e-98
1.271249999999952252e+00 3.340108027302475277e-96
1.484999999999956799e+00 8.197679862099544261e-96
1.698749999999947136e+00 1.390900595154024021e-95
1.912499999999951683e+00 1.882206545912733996e-95
2.126249999999956231e+00 2.017442648604204616e-95
2.339999999999946567e+00 1.428519704447691601e-95
2.553749999999951115e+00 -2.704389858544303484e-96
2.767499999999955662e+00 -3.338069225093236272e-95
2.981249999999945999e+00 -7.689425066905291801e-95
3.194999999999950546e+00 -1.263716149748922012e-94
3.408749999999955094e+00 -1.666085331223227289e-94
3.622499999999945430e+00 -1.732276915209648970e-94
3.836249999999949978e+00 -1.148745190789150199e-94
4.049999999999954525e+00 3.990269172652359109e-95
4.263749999999944862e+00 3.099779748487866647e-94
4.477499999999949409e+00 6.834946314412244466e-94
4.691249999999953957e+00 1.097020607052135196e-93
4.904999999999944293e+00 1.418169129781672234e-93
5.118749999999948841e+00 1.441491078762550538e-93
5.332499999999953388e+00 9.101428051063785248e-94
5.546249999999943725e+00 -4.242637186387882415e-94
5.759999999999948272e+00 -2.696318840849504294e-93
5.973749999999952820e+00 -5.780757056775329146e-93
6.187499999999943157e+00 -9.130343860075363343e-93
6.401249999999947704e+00 -1.164844352045989658e-92
6.614999999999952252e+00 -1.167396083522706730e-92
6.828749999999942588e+00 -7.174361202337703627e-93
7.042499999999947136e+00 3.762516953059109303e-93
7.256249999999951683e+00 2.209125635655481753e-92
7.469999999999942020e+00 4.667644925690122003e-92
7.683749999999946567e+00 7.306850185780563265e-92
7.897499999999951115e+00 9.258574527460814925e-92
8.111249999999941451e+00 9.229456021596164295e-92
8.324999999999945999e+00 5.659699217256255261e-92
8.538749999999950546e+00 -2.892605257385325422e-92
8.752499999999940883e+00 -1.711227928943727028e-91
8.966249999999945430e+00 -3.607751936842622134e-91
9.179999999999949978e+00 -5.635823485883018169e-91
9.393749999999940314e+00 -7.136143916164200389e-91
9.607499999999944862e+00 -7.135892031229667470e-91
9.821249999999949409e+00 -4.470888632856902459e-91
1.003499999999993975e+01 1.927336404221050351e-91
1.024874999999994429e+01 1.256095567739891599e-90
1.046249999999994884e+01 2.674716737982001858e-90
1.067624999999993918e+01 4.196839308468494088e-90
1.088999999999994373e+01 5.340771310091936757e-90
1.110374999999994827e+01 5.397984814579629042e-90
1.131749999999993861e+01 3.521791118633494768e-90
1.153124999999994316e+01 -1.066886182943100397e-90
1.174499999999994770e+01 -8.744477877497286202e-90
1.195874999999993804e+01 -1.904640952272609789e-89
1.217249999999994259e+01 -3.020808573843260284e-89
1.238624999999994714e+01 -3.883632728641343206e-89
1.259999999999993747e+01 -3.992628104732460306e-89
1.281374999999994202e+01 -2.747182089680524039e-89
1.302749999999994657e+01 4.114820842167863750e-90
1.324124999999995111e+01 5.769172958308802732e-89
1.345499999999994145e+01 1.303613433255485702e-88
1.366874999999994600e+01 2.102908298839515838e-88
1.388249999999995055e+01 2.744005736571229877e-88
1.409624999999994088e+01 2.883711642142186990e-88
1.430999999999994543e+01 2.106403543276372643e-88
1.452374999999994998e+01 1.848354923907961656e-90
1.473749999999994031e+01 -3.596912802300735911e-88
1.495124999999994486e+01 -8.576305044404326523e-88
1.516499999999994941e+01 -1.416000468962086821e-87
1.537874999999993975e+01 -1.883100223685190753e-87
1.559249999999994429e+01 -2.030392144425679704e-87
1.580624999999994884e+01 -1.577429039764387345e-87
1.601999999999993918e+01 -2.525318617619193731e-88
1.623374999999994373e+01 2.106672171991033440e-87
1.644749999999994827e+01 5.419705520640665729e-87
1.666124999999993861e+01 9.219785308157148629e-87
1.687499999999994316e+01 1.254310448997447014e-86
1.708874999999994770e+01 1.391189039473513867e-86
1.730249999999993804e+01 1.148236586146584868e-86
1.751624999999994259e+01 3.421307042950395819e-87
1.772999999999994714e+01 -1.145954534193792901e-86
1.794374999999993747e+01 -3.285011445750760438e-86
1.815749999999994202e+01 -5.801013302943283440e-86
1.837124999999994657e+01 -8.102238805142227330e-86
1.858499999999993690e+01 -9.261190736173478331e-86
1.879874999999994145e+01 -8.097943478171190078e-86
1.901249999999994600e+01 -3.405862737007057416e-86
1.922624999999993634e+01 5.659762480333019306e-86
1.943999999999994088e+01 1.905076892252666687e-85
1.965374999999994543e+01 3.523533539480513722e-85
1.986749999999993577e+01 5.070553923728967326e-85
2.008124999999994031e+01 5.981463867005335584e-85
2.029499999999994486e+01 5.521994066807546431e-85
2.050874999999993520e+01 2.918880216891349276e-85
2.072249999999993975e+01 -2.409132029193520634e-85
2.093624999999994429e+01 -1.052988983809208957e-84
2.114999999999993463e+01 -2.063277070107213941e-84
2.136374999999993918e+01 -3.071208008965627165e-84
2.157749999999994373e+01 -3.743572554609056355e-84
2.179124999999993406e+01 -3.636467074202788522e-84
2.200499999999993861e+01 -2.268139768983689917e-84
2.221874999999994316e+01 7.478659556535010382e-85
2.243249999999993349e+01 5.513582355354914158e-84
2.264624999999993804e+01 1.162700563771140301e-83
2.285999999999994259e+01 1.798404906879702152e-83
2.307374999999993292e+01 2.268074162493797984e-83
2.328749999999993747e+01 2.311240554516834937e-83
2.350124999999994202e+01 1.636461125061652066e-83
2.371499999999993236e+01 -4.336436429851797167e-86
2.392874999999993690e+01 -2.707745224990902872e-83
2.414249999999994145e+01 -6.290390598693907188e-83
2.435624999999993179e+01 -1.016856181959935803e-82
2.456999999999993634e+01 -1.328994177839888954e-82
2.478374999999994088e+01 -1.417247077103875540e-82
2.499749999999993122e+01 -1.110566686378071727e-82
2.521124999999993577e+01 -2.552390240906928055e-83
2.542499999999994031e+01 1.225136495666886626e-82
2.563874999999993065e+01 3.256595611363155239e-82
2.585249999999993520e+01 5.543796274577768969e-82
2.606624999999993975e+01 7.524918429642898909e-82
2.627999999999994429e+01 8.382934877053026332e-82
2.649374999999993463e+01 7.144672365999744555e-82
2.670749999999993918e+01 2.890653664117602730e-82
2.692124999999994373e+01 -4.922189303953067998e-82
2.713499999999993406e+01 -1.605721686670665915e-81
2.734874999999993861e+01 -2.909167359666996503e-81
2.756249999999994316e+01 -4.113295264503631184e-81
2.777624999999993349e+01 -4.782138980111498663e-81
2.798999999999993804e+01 -4.379311468507770186e-81
2.820374999999994259e+01 -2.373757749235517507e-81
2.841749999999993292e+01 1.592013386480485740e-81
2.863124999999993747e+01 7.485879232940813397e-81
2.884499999999994202e+01 1.466058522746592572e-80
2.905874999999993236e+01 2.168301659706218741e-80
2.927249999999993690e+01 2.630389212179330692e-80
2.948624999999994145e+01 2.566102607020577462e-80
2.969999999999993179e+01 1.679243073403289699e-80
2.991374999999993634e+01 -2.514879389481031290e-81
3.012749999999994088e+01 -3.260260112284348201e-80
3.034124999999993122e+01 -7.072824575080250025e-80
3.055499999999993577e+01 -1.100796096795202362e-79
3.076874999999994031e+01 -1.394510462544834377e-79
3.098249999999993065e+01 -1.440672182825876779e-79
3.119624999999993520e+01 -1.079725859917819721e-79
3.140999999999993975e+01 -1.817086515665255387e-80
3.162374999999993008e+01 1.297264598901850147e-79
3.183749999999993463e+01 3.251800390678616527e-79
3.205124999999993918e+01 5.372532202718075827e-79
3.226499999999992951e+01 7.121311451718374613e-79
3.247874999999993406e+01 7.760869988402975685e-79
3.269249999999993861e+01 6.461157091864403573e-79
3.290624999999992895e+01 2.494136658172511016e-79
3.311999999999993349e+01 -4.491015383920793177e-79
3.333374999999993804e+01 -1.414898539483363097e-78
3.354749999999992838e+01 -2.514605191030789839e-78
3.376124999999993292e+01 -3.499642661484722255e-78
3.397499999999993747e+01 -4.014796998287443514e-78
3.418874999999992781e+01 -3.643139264841938369e-78
3.440249999999993236e+01 -1.994282105164018491e-78
3.461624999999993690e+01 1.165981715070288532e-78
3.482999999999992724e+01 5.759911316573458169e-78
3.504374999999993179e+01 1.124728280575204131e-77
3.525749999999993634e+01 1.652715382033233716e-77
3.547124999999992667e+01 1.994944262334536680e-77
3.568499999999993122e+01 1.949310059225901683e-77
3.589874999999993577e+01 1.314988919497695146e-77
3.611249999999992610e+01 -4.860254717233667267e-79
3.632624999999993065e+01 -2.148226298177021037e-77
3.653999999999993520e+01 -4.782047548394662167e-77
3.675374999999992554e+01 -7.484665827323880825e-77
3.696749999999993008e+01 -9.518489500649001522e-77
3.718124999999993463e+01 -9.938800778617290017e-77
3.739499999999992497e+01 -7.753200317215543801e-77
3.760874999999992951e+01 -2.179968801792044979e-77
3.782249999999993406e+01 7.016111990085514712e-77
3.803624999999993861e+01 1.916547016105900350e-76
3.824999999999994316e+01 3.240337579094747375e-76
3.846374999999991928e+01 4.356597891171841961e-76
3.867749999999992383e+01 4.840020026384130559e-76
3.889124999999992838e+01 4.219226492817758018e-76
3.910499999999993292e+01 2.085548483558470999e-76
3.931874999999993747e+01 -1.759100078815386002e-76
3.953249999999994202e+01 -7.136654987925646829e-76
3.974624999999991815e+01 -1.334706576107375642e-75
3.995999999999992269e+01 -1.909330738247293200e-75
4.017374999999992724e+01 -2.253467249777676268e-75
4.038749999999993179e+01 -2.151920017107277243e-75
4.060124999999993634e+01 -1.402194696627048370e-75
4.081499999999994088e+01 1.228026616721948451e-76
4.102874999999991701e+01 2.401025791789378923e-75
4.124249999999992156e+01 5.191355024260139024e-75
4.145624999999992610e+01 7.988735128959831023e-75
4.166999999999993065e+01 1.002938562667937390e-74
4.188374999999993520e+01 1.036977793602055341e-74
4.209749999999993975e+01 8.054586414376616250e-75
4.231124999999991587e+01 2.371947253693573768e-75
4.252499999999992042e+01 -6.830388070564471085e-75
4.273874999999992497e+01 -1.882411582196739915e-74
4.295249999999992951e+01 -3.175971511855029957e-74
4.316624999999993406e+01 -4.261103585812323296e-74
4.337999999999993861e+01 -4.741121866171090492e-74
4.359374999999991473e+01 -4.185888129422195076e-74
4.380749999999991928e+01 -2.231183751090492512e-74
4.402124999999992383e+01 1.291052325294315843e-74
4.423499999999992838e+01 6.211628428650988890e-74
4.444874999999993292e+01 1.190472462373284587e-73
4.466249999999993747e+01 1.723266692287006908e-73
4.487624999999991360e+01 2.060049063577940231e-73
4.508999999999991815e+01 2.015849013582605236e-73
4.530374999999992269e+01 1.416980709798602157e-73
4.551749999999992724e+01 1.524423620018365306e-74
4.573124999999993179e+01 -1.766666927768352587e-73
4.594499999999993634e+01 -4.151585381443574138e-73
4.615874999999991246e+01 -6.600637866958296309e-73
4.637249999999991701e+01 -8.503152733153446693e-73
4.658624999999992156e+01 -9.099975353063312643e-73
4.679999999999992610e+01 -7.611353201399552904e-73
4.701374999999993065e+01 -3.430409036068514829e-73
4.722749999999993520e+01 3.637491254429076154e-73
4.744124999999993975e+01 1.313023525591072771e-72
4.765499999999991587e+01 2.374028977855226609e-72
4.786874999999992042e+01 3.325654637504063158e-72
4.808249999999992497e+01 3.871212663258856382e-72
4.829624999999992951e+01 3.679526263844517085e-72
4.850999999999993406e+01 2.453901520524355081e-72
4.872374999999993861e+01 2.413717268297697044e-74
4.893749999999991473e+01 -3.551375152033041447e-72
4.915124999999991928e+01 -7.894881953862563610e-72
4.936499999999992383e+01 -1.225811182195601558e-71
4.957874999999992838e+01 -1.554179523750954986e-71
4.979249999999993292e+01 -1.641309349862442085e-71
5.000624999999993747e+01 -1.353573818226207573e-71
5.021999999999991360e+01 -5.905936456085217243e-72
5.043374999999991815e+01 6.742653165708232261e-72
5.064749999999992269e+01 2.353543201544591884e-71
5.086124999999992724e+01 4.215674856583313867e-71
5.107499999999993179e+01 5.877490899795101349e-71
5.128874999999993634e+01 6.831240750302881869e-71
5.150249999999991246e+01 6.514919379522175118e-71
5.171624999999991701e+01 4.427833802712730788e-71
5.192999999999992156e+01 2.829766835223985695e-72
5.214374999999992610e+01 -5.825111563620848579e-71
5.235749999999993065e+01 -1.327164690895369059e-70
5.257124999999993520e+01 -2.081742721296127415e-70
5.278499999999991132e+01 -2.663880464583951532e-70
5.299874999999991587e+01 -2.851538599754157419e-70
5.321249999999992042e+01 -2.419961492387707913e-70
5.342624999999992497e+01 -1.195843607692998731e-70
5.363999999999992951e+01 8.769342699149377572e-71
5.385374999999993406e+01 3.670977712235382241e-70
5.406749999999991019e+01 6.824458601759930688e-70
5.428124999999991473e+01 9.724934155176947749e-70
5.449499999999991928e+01 1.154732713508258003e-69
5.470874999999992383e+01 1.136088210432399750e-69
5.492249999999992838e+01 8.309653004436094994e-70
5.513624999999993292e+01 1.855162042510688433e-70
5.534999999999990905e+01 -7.950332867435988031e-70
5.556374999999991360e+01 -2.021300081826840624e-69
5.577749999999991815e+01 -3.304016113992307399e-69
5.599124999999992269e+01 -4.355650550716850130e-69
5.620499999999992724e+01 -4.816702069928260486e-69
5.641874999999993179e+01 -4.311226901991434553e-69
5.663249999999990791e+01 -2.531078594163870505e-69
5.684624999999991246e+01 6.588892036122780270e-70
5.705999999999991701e+01 5.110956060110768808e-69
5.727374999999992156e+01 1.030468692849190102e-68
5.748749999999992610e+01 1.530788512400044202e-68
5.770124999999993065e+01 1.882043759762132028e-68
5.791499999999990678e+01 1.932720906573368605e-68
5.812874999999991132e+01 1.537118100034918848e-68
5.834249999999991587e+01 5.933675557402718182e-69
5.855624999999992042e+01 -9.123481553572136463e-69
5.876999999999992497e+01 -2.863419679110400938e-68
5.898374999999992951e+01 -4.983428733339431093e-68
5.919749999999990564e+01 -6.832694034839984211e-68
5.941124999999991019e+01 -7.843082303207674938e-68
5.962499999999991473e+01 -7.399535423029699157e-68
5.983874999999991928e+01 -4.969078684104180572e-68
6.005249999999992383e+01 -2.667859412538051067e-69
6.026624999999992838e+01 6.565540009835039842e-68
6.047999999999990450e+01 1.480606114761142033e-67
6.069374999999990905e+01 2.307368331533106018e-67
6.090749999999991360e+01 2.937497519006598544e-67
6.112124999999991815e+01 3.132129051324895966e-67
6.133499999999992269e+01 2.653778047814069443e-67
6.154874999999992724e+01 1.324838161239428048e-67
6.176249999999993179e+01 -9.029396981293022223e-68
6.197624999999990791e+01 -3.880213984528666794e-67
6.218999999999991246e+01 -7.210347171585537610e-67
6.240374999999991701e+01 -1.023852320385942676e-66
6.261749999999992156e+01 -1.209930326887679945e-66
6.283124999999992610e+01 -1.183641225472922626e-66
6.304499999999993065e+01 -8.596770111454253209e-67
6.325874999999990678e+01 -1.883364752409756456e-67
6.347249999999991132e+01 8.169635582046279243e-67
6.368624999999991587e+01 2.055749951365419890e-66
6.389999999999992042e+01 3.327555167585954624e-66
6.411374999999992497e+01 4.337905722394404794e-66
6.432749999999992951e+01 4.729916798890857209e-66
6.454124999999990564e+01 4.144734157261835470e-66
6.475499999999991019e+01 2.308341590055457132e-66
6.496874999999991473e+01 -8.653180701426339306e-67
6.518249999999991928e+01 -5.173291886570103709e-66
6.539624999999992383e+01 -1.005036868808611897e-65
6.560999999999992838e+01 -1.455348746857620633e-65
6.582374999999990450e+01 -1.743214320307181941e-65
6.603749999999990905e+01 -1.730395711455006284e-65
6.625124999999991360e+01 -1.293676043926806603e-65
6.646499999999991815e+01 -3.612831848720584139e-66
6.667874999999992269e+01 1.047963141879591543e-65
6.689249999999992724e+01 2.791260334974982314e-65
6.710624999999990337e+01 4.584815671309712939e-65
6.731999999999990791e+01 6.014272636535387075e-65
6.753374999999991246e+01 6.581486208892178438e-65
6.774749999999991701e+01 5.791328657922016840e-65
6.796124999999992156e+01 3.273875116536335310e-65
6.817499999999992610e+01 -1.073340442268597629e-65
6.838874999999990223e+01 -6.949620127044730999e-65
6.860249999999990678e+01 -1.355800227101544678e-64
6.881624999999991132e+01 -1.959525760374666389e-64
6.902999999999991587e+01 -2.336174300077925149e-64
6.924374999999992042e+01 -2.301352650383492407e-64
6.945749999999992497e+01 -1.695340098945790866e-64
6.967124999999990109e+01 -4.321828025176226540e-65
6.988499999999990564e+01 1.449172093032983354e-64
7.009874999999991019e+01 3.743414911901318850e-64
7.031249999999991473e+01 6.061206100376000243e-64
7.052624999999991928e+01 7.849337426886224760e-64
7.073999999999992383e+01 8.459175541231229593e-64
7.095374999999989996e+01 7.266229585804847781e-64
7.116749999999990450e+01 3.832280777937804432e-64
7.138124999999990905e+01 -1.912409147827658044e-64
7.159499999999991360e+01 -9.503319797912337208e-64
7.180874999999991815e+01 -1.783955140890036781e-63
7.202249999999992269e+01 -2.519602478810847568e-63
7.223624999999989882e+01 -2.939304089478190507e-63
7.244999999999990337e+01 -2.814498277109739352e-63
7.266374999999990791e+01 -1.957480760418003823e-63
7.287749999999991246e+01 -2.835033192133532403e-64
7.309124999999991701e+01 2.127387334595749296e-63
7.330499999999992156e+01 4.983976734322614029e-63
7.351874999999989768e+01 7.770470864785576308e-63
7.373249999999990223e+01 9.782460426472785284e-63
7.394624999999990678e+01 1.022315304077931408e-62
7.415999999999991132e+01 8.360386981186445901e-63
7.437374999999991587e+01 3.730320086155704510e-63
7.458749999999992042e+01 -3.643280631297803961e-63
7.480124999999992497e+01 -1.306132529222721964e-62
7.501499999999990109e+01 -2.305140740327826883e-62
7.522874999999990564e+01 -3.141881210131207277e-62
7.544249999999991019e+01 -3.549297493056495617e-62
7.565624999999991473e+01 -3.258667076361491995e-62
7.586999999999991928e+01 -2.064039266102003775e-62
7.608374999999992383e+01 1.031335133650745086e-63
7.629749999999989996e+01 3.103232233124699330e-62
7.651124999999990450e+01 6.540210819809336465e-62
7.672499999999990905e+01 9.756326513536807428e-62
7.693874999999991360e+01 1.188797287219649787e-61
7.715249999999991815e+01 1.199305385860576440e-61
7.736624999999992269e+01 9.247162555906462347e-62
7.757999999999989882e+01 3.188195417580523944e-62
7.779374999999990337e+01 -6.030537531987531346e-62
7.800749999999990791e+01 -1.743619798224666481e-61
7.822124999999991246e+01 -2.914933190551870822e-61
7.843499999999991701e+01 -3.848014276034697086e-61
7.864874999999992156e+01 -4.225622317247267802e-61
7.886249999999989768e+01 -3.739308456964559846e-61
7.907624999999990223e+01 -2.166522484998156710e-61
7.928999999999990678e+01 5.428624337310728766e-62
7.950374999999991132e+01 4.187576853300484398e-61
7.971749999999991587e+01 8.265226140860529236e-61
7.993124999999992042e+01 1.197487322899162001e-60
8.014499999999989654e+01 1.429143067080428445e-60
8.035874999999990109e+01 1.412181271859277652e-60
8.057249999999990564e+01 1.053726739027020985e-60
8.078624999999991019e+01 3.056197621978830073e-61
8.099999999999991473e+01 -8.069898656288792522e-61
8.121374999999991928e+01 -2.163347568020228617e-60
8.142749999999989541e+01 -3.538736258918036710e-60
8.164124999999989996e+01 -4.617319062114137617e-60
8.185499999999990450e+01 -5.031226835802936322e-60
8.206874999999990905e+01 -4.426702962308613663e-60
8.228249999999991360e+01 -2.552108460542100090e-60
8.249624999999991815e+01 6.444585766990167909e-61
8.270999999999989427e+01 4.927010673045200076e-60
8.292374999999989882e+01 9.717021942414246225e-60
8.313749999999990337e+01 1.409754613733110270e-59
8.335124999999990791e+01 1.689720260816563332e-59
8.356499999999991246e+01 1.686454832369967702e-59
8.377874999999991701e+01 1.292642623210352198e-59
8.399249999999989313e+01 4.502170615706840822e-60
8.420624999999989768e+01 -8.177706905003731904e-60
8.441999999999990223e+01 -2.381976209232653810e-59
8.463374999999990678e+01 -3.996525071590080624e-59
8.484749999999991132e+01 -5.311585644206274293e-59
8.506124999999991587e+01 -5.914314245400203380e-59
8.527499999999989200e+01 -5.399317876401573635e-59
8.548874999999989654e+01 -3.463491548437262594e-59
8.570249999999990109e+01 -1.267873190369273312e-61
8.591624999999990564e+01 4.739651539702195159e-59
8.612999999999991019e+01 1.020692275726275064e-58
8.634374999999991473e+01 1.542404624576692514e-58
8.655749999999989086e+01 1.912519360480873318e-58
8.677124999999989541e+01 1.991750949382170761e-58
8.698499999999989996e+01 1.654661469767215413e-58
8.719874999999990450e+01 8.227704348770699964e-59
8.741249999999990905e+01 -5.008025526322067770e-59
8.762624999999991360e+01 -2.202333296747337082e-58
8.783999999999991815e+01 -4.042607978591238613e-58
8.805374999999989427e+01 -5.664528904874540384e-58
8.826749999999989882e+01 -6.629575279189609866e-58
8.848124999999990337e+01 -6.485356256765195223e-58
8.869499999999990791e+01 -4.860415234294864780e-58
8.890874999999991246e+01 -1.575073424745651912e-58
8.912249999999991701e+01 3.250389488978954721e-58
8.933624999999989313e+01 9.114922404656599206e-58
8.954999999999989768e+01 1.511064034384760952e-57
8.976374999999990223e+01 1.997650629239109432e-57
8.997749999999990678e+01 2.224806173590402354e-57
9.019124999999991132e+01 2.050424044340755717e-57
9.040499999999991587e+01 1.369151045164501732e-57
9.061874999999989200e+01 1.481907385315560064e-58
9.083249999999989654e+01 -1.540089603243270232e-57
9.104624999999990109e+01 -3.496919442873697813e-57
9.125999999999990564e+01 -5.395784877536497186e-57
9.147374999999991019e+01 -6.808160558254239773e-57
9.168749999999991473e+01 -7.260113785055335836e-57
9.190124999999989086e+01 -6.318238714485210246e-57
9.211499999999989541e+01 -3.696548678786447832e-57
9.232874999999989996e+01 6.313984775601728704e-58
9.254249999999990450e+01 6.337342172096038394e-57
9.275624999999990905e+01 1.268624205347383478e-56
9.296999999999991360e+01 1.855305101038714680e-56
9.318374999999988972e+01 2.252814771944915479e-56
9.339749999999989427e+01 2.311905646582760982e-56
9.361124999999989882e+01 1.903819318339097218e-56
9.382499999999990337e+01 9.544681706590329614e-57
9.403874999999990791e+01 -5.213877730841013684e-57
9.425249999999991246e+01 -2.393189272843740692e-56
9.446624999999988859e+01 -4.402955591075791472e-56
9.467999999999989313e+01 -6.176561508430853363e-56
9.489374999999989768e+01 -7.263177398331868145e-56
9.510749999999990223e+01 -7.203960557781774592e-56
9.532124999999990678e+01 -5.625305963568381598e-56
9.553499999999991132e+01 -2.345268932046784676e-56
9.574874999999988745e+01 2.524733685622351558e-56
9.596249999999989200e+01 8.505728086411403939e-56
9.617624999999989654e+01 1.472900517557204237e-55
9.638999999999990109e+01 1.998764498990055562e-55
9.660374999999990564e+01 2.287516525773954425e-55
9.681749999999991019e+01 2.201097550520845305e-55
9.703124999999988631e+01 1.633419476257647547e-55
9.724499999999989086e+01 5.427239517270019137e-56
9.745874999999989541e+01 -1.018805915379656788e-55
9.767249999999989996e+01 -2.885184525828279780e-55
9.788624999999990450e+01 -4.773758889289269469e-55
9.809999999999990905e+01 -6.305407988622285392e-55
9.831374999999988518e+01 -7.051068808888022315e-55
9.852749999999988972e+01 -6.603478173578726488e-55
9.874124999999989427e+01 -4.667482451920873940e-55
9.895499999999989882e+01 -1.156337547774113953e-55
9.916874999999990337e+01 3.723805293466246490e-55
9.938249999999990791e+01 9.422260838794570470e-55
9.959624999999988404e+01 1.504598957789960273e-54
9.980999999999988859e+01 1.943219333283576627e-54
1.000237499999998931e+02 2.129878179256264055e-54
1.002374999999998977e+02 1.946663088373552443e-54
1.004512499999999022e+02 1.313102186846620886e-54
1.006649999999999068e+02 2.142560416863729133e-55
1.008787499999998829e+02 -1.275646038259773425e-54
1.010924999999998875e+02 -2.980209365234071788e-54
1.013062499999998920e+02 -4.624467031862654291e-54
1.015199999999998965e+02 -5.859498466664871068e-54
1.017337499999999011e+02 -6.309626204981047272e-54
1.019474999999999056e+02 -5.639656289403131299e-54
1.021612499999999102e+02 -3.634794277325230357e-54
1.023749999999998863e+02 -2.810399156724390027e-55
1.025887499999998909e+02 4.169981682384841949e-54
1.028024999999998954e+02 9.169577347636053532e-54
1.030162499999999000e+02 1.389048733815969940e-53
1.032299999999999045e+02 1.730689213306725106e-53
1.034437499999999091e+02 1.833864165959477845e-53
1.036574999999998852e+02 1.605034649672614805e-53
1.038712499999998897e+02 9.882114443242599889e-54
1.040849999999998943e+02 -1.246659021862458421e-55
1.042987499999998988e+02 -1.315316411196146628e-53
1.045124999999999034e+02 -2.753897770271370931e-53
1.047262499999999079e+02 -4.084519305220218441e-53
1.049399999999998840e+02 -5.011392224840580947e-53
1.051537499999998886e+02 -5.229710270825063851e-53
1.053674999999998931e+02 -4.483436754628721277e-53
1.055812499999998977e+02 -2.630681777202249654e-53
1.057949999999999022e+02 2.940828948856656102e-54
1.060087499999999068e+02 4.034291627915145280e-53
1.062224999999998829e+02 8.096025249379506364e-53
1.064362499999998875e+02 1.177528930912913378e-52
1.066499999999998920e+02 1.423499566902969805e-52
1.068637499999998965e+02 1.463103885864602862e-52
1.070774999999999011e+02 1.227691723019241081e-52
1.072912499999999056e+02 6.825587512789853098e-53
1.075049999999998818e+02 -1.562433804561711201e-53
1.077187499999998863e+02 -1.210205069138311844e-52
1.079324999999998909e+02 -2.335574867942123570e-52
1.081462499999998954e+02 -3.332645792572828123e-52
1.083599999999999000e+02 -3.968788284955428935e-52
1.085737499999999045e+02 -4.014668929690516999e-52
1.087874999999998806e+02 -3.290319171335036046e-52
1.090012499999998852e+02 -1.714802224144998623e-52
1.092149999999998897e+02 6.492919739775756282e-53
1.094287499999998943e+02 3.566799333377269477e-52
1.096424999999998988e+02 6.626559049345344037e-52
1.098562499999999034e+02 9.271649917826460979e-52
1.100699999999998795e+02 1.086696982849143861e-51
1.102837499999998840e+02 1.080151789687199019e-51
1.104974999999998886e+02 8.615128821174446530e-52
1.107112499999998931e+02 4.131656650149884664e-52
1.109249999999998977e+02 -2.425793263182737549e-52
1.111387499999999022e+02 -1.036537632641573956e-51
1.113524999999998784e+02 -1.852941453276225254e-51
1.115662499999998829e+02 -2.538961099375755951e-51
1.117799999999998875e+02 -2.924191211399450519e-51
1.119937499999998920e+02 -2.849077877649465882e-51
1.122074999999998965e+02 -2.199211749313979872e-51
1.124212499999999011e+02 -9.403912394371900801e-52
1.126349999999998772e+02 8.522227633985607446e-52
1.128487499999998818e+02 2.978247423274915094e-51
1.130624999999998863e+02 5.116349067427443002e-51
1.132762499999998909e+02 6.853425770936482593e-51
1.134899999999998954e+02 7.739911036858703196e-51
1.137037499999999000e+02 7.367602805609828539e-51
1.139174999999998761e+02 5.460988314798950112e-51
1.141312499999998806e+02 1.967871987482804028e-51
1.143449999999998852e+02 -2.868684592413908500e-51
1.145587499999998897e+02 -8.476405983814482890e-51
1.147724999999998943e+02 -1.397498775340978009e-50
1.149862499999998988e+02 -1.826347315323870667e-50
1.151999999999998749e+02 -2.017490224242810951e-50
1.154137499999998795e+02 -1.868638556975562457e-50
1.156274999999998840e+02 -1.315860298149586509e-50
1.158412499999998886e+02 -3.565808188863008013e-51
1.160549999999998931e+02 9.331383320657482602e-51
1.162687499999998977e+02 2.391996829535065181e-50
1.164824999999999022e+02 3.781741030549620802e-50
1.166962499999998784e+02 4.812775317321649319e-50
1.169099999999998829e+02 5.186799727290348914e-50
1.171237499999998875e+02 4.652749986004121389e-50
1.173374999999998920e+02 3.068692119257682182e-50
1.175512499999998965e+02 4.591592089591400211e-51
1.177649999999999011e+02 -2.944540105528244096e-50
1.179787499999998772e+02 -6.693550916475531144e-50
1.181924999999998818e+02 -1.015034190262747179e-49
1.184062499999998863e+02 -1.256227781890376008e-49
1.186199999999998909e+02 -1.317756155216670314e-49
1.188337499999998954e+02 -1.139228109765851167e-49
1.190474999999999000e+02 -6.908169073582766507e-50
1.192612499999998761e+02 1.269024324206921564e-51
1.194749999999998806e+02 9.027808103114976509e-50
1.196887499999998852e+02 1.856151076661233570e-49
1.199024999999998897e+02 2.704052460272858127e-49
1.201162499999998943e+02 3.253014380873935951e-49
1.203299999999998988e+02 3.315942148587949016e-49
1.205437499999998749e+02 2.750293478948274415e-49
1.207574999999998795e+02 1.497774877871195883e-49
1.209712499999998840e+02 -3.817795021008965624e-50
1.211849999999998886e+02 -2.690502582696440271e-49
1.213987499999998931e+02 -5.094162674495735486e-49
1.216124999999998977e+02 -7.150819038989877266e-49
1.218262499999998738e+02 -8.368057032572468604e-49
1.220399999999998784e+02 -8.285252332096754497e-49
1.222537499999998829e+02 -6.571503324847342508e-49
1.224674999999998875e+02 -3.124348906793936186e-49
1.226812499999998920e+02 1.849693278083081354e-49
1.228949999999998965e+02 7.793203209552920151e-49
1.231087499999998727e+02 1.381287141826818851e-48
1.233224999999998772e+02 1.876354613194072158e-48
1.235362499999998818e+02 2.140321011437959487e-48
1.237499999999998863e+02 2.060754311976768208e-48
1.239637499999998909e+02 1.561822363220148299e-48
1.241774999999998954e+02 6.285839010613931426e-49
1.243912499999998715e+02 -6.740906120703877652e-49
1.246049999999998761e+02 -2.193022719309572141e-48
1.248187499999998806e+02 -3.693014435520139036e-48
1.250324999999998852e+02 -4.880566499163395845e-48
1.252462499999998897e+02 -5.445002728949851352e-48
1.254599999999998943e+02 -5.113622945489477251e-48
1.256737499999998704e+02 -3.713937334126695395e-48
1.258874999999998749e+02 -1.232880924852992490e-48
1.261012499999998795e+02 2.139119479709810003e-48
1.263149999999998840e+02 5.991574646553877651e-48
1.265287499999998886e+02 9.715119691045234131e-48
1.267424999999998931e+02 1.256613487530663189e-47
1.269562499999998693e+02 1.377363755499746355e-47