2.024999999999579359e-01 -5.573459393665047001e-93
4.162499999999482725e-01 -1.639335206665001208e-92
6.299999999999528200e-01 -2.951844119739036069e-92
8.437499999999573674e-01 -4.172975179760450921e-92
1.057499999999947704e+00 -4.763209671356446917e-92
1.271249999999952252e+00 -4.001786423803617581e-92
1.484999999999956799e+00 -1.120091654333553770e-92
1.698749999999947136e+00 4.444120303023618092e-92
1.912499999999951683e+00 1.267537488690305081e-91
2.126249999999956231e+00 2.254259222589172313e-91
2.339999999999946567e+00 3.160845969387672359e-91
2.553749999999951115e+00 3.586786047192306814e-91
2.767499999999955662e+00 3.004820209090753305e-91
2.981249999999945999e+00 8.607020725336884596e-92
3.194999999999950546e+00 -3.242053586162400018e-91
3.408749999999955094e+00 -9.277208159324391174e-91
3.622499999999945430e+00 -1.648844069042153514e-90
3.836249999999949978e+00 -2.312086115235270986e-90
4.049999999999954525e+00 -2.631820947172739434e-90
4.263749999999944862e+00 -2.234511576205724347e-90
4.477499999999949409e+00 -7.292137827122349092e-91
4.691249999999953957e+00 2.163868253053478163e-90
4.904999999999944293e+00 6.430857457676545942e-90
5.118749999999948841e+00 1.155415574726871660e-89
5.332499999999953388e+00 1.633023606840230793e-89
5.546249999999943725e+00 1.880043723830209450e-89
5.759999999999948272e+00 1.640060407148851805e-89
5.973749999999952820e+00 6.433180243042469643e-90
6.187499999999943157e+00 -1.307514082723416145e-89
6.401249999999947704e+00 -4.215843648414681823e-89
6.614999999999952252e+00 -7.751306157852709841e-89
6.828749999999942588e+00 -1.112760401325398815e-88
7.042499999999947136e+00 -1.305315567470361382e-88
7.256249999999951683e+00 -1.182282208681772265e-88
7.469999999999942020e+00 -5.617523464700399853e-89
7.683749999999946567e+00 6.947031655418528111e-89
7.897499999999951115e+00 2.603871759670408744e-88
8.111249999999941451e+00 4.970193529756476447e-88
8.324999999999945999e+00 7.304940309260202900e-88
8.538749999999950546e+00 8.789679988342678466e-88
8.752499999999940883e+00 8.326809755670017180e-88
8.966249999999945430e+00 4.719468703905285736e-88
9.179999999999949978e+00 -2.991975172513829130e-88
9.393749999999940314e+00 -1.504412132567423698e-87
9.607499999999944862e+00 -3.037776796476391726e-87
9.821249999999949409e+00 -4.611150741579859899e-87
1.003499999999993975e+01 -5.726867160180407248e-87
1.024874999999994429e+01 -5.701817819351098530e-87
1.046249999999994884e+01 -3.769229019836481085e-87
1.067624999999993918e+01 7.238668821547787879e-88
1.088999999999994373e+01 8.025147778163173799e-87
1.110374999999994827e+01 1.762521471081961473e-86
1.131749999999993861e+01 2.792108832447462932e-86
1.153124999999994316e+01 3.601500153914306235e-86
1.174499999999994770e+01 3.780264788654760107e-86
1.195874999999993804e+01 2.851121087164439146e-86
1.217249999999994259e+01 3.805737678399523537e-87
1.238624999999994714e+01 -3.852445247027196376e-86
1.259999999999993747e+01 -9.646677172581718502e-86
1.281374999999994202e+01 -1.616811449393868097e-85
1.302749999999994657e+01 -2.180604953553241603e-85
1.324124999999995111e+01 -2.418417112244576545e-85
1.345499999999994145e+01 -2.042239726485474610e-85
1.366874999999994600e+01 -7.726409628282861814e-86
1.388249999999995055e+01 1.567299492390615015e-85
1.409624999999994088e+01 4.930493926600503648e-85
1.430999999999994543e+01 8.917552621977913658e-85
1.452374999999994998e+01 1.267764541354018657e-84
1.473749999999994031e+01 1.488791067804252258e-84
1.495124999999994486e+01 1.386722170504981854e-84
1.516499999999994941e+01 7.873179137677619693e-85
1.537874999999993975e+01 -4.395203193645005733e-85
1.559249999999994429e+01 -2.311635046156669689e-84
1.580624999999994884e+01 -4.658575841060951715e-84
1.601999999999993918e+01 -7.056152344300414356e-84
1.623374999999994373e+01 -8.798278671100690369e-84
1.644749999999994827e+01 -8.937850865225974978e-84
1.666124999999993861e+01 -6.426824301324288388e-84
1.687499999999994316e+01 -3.739109103562072011e-85
1.708874999999994770e+01 9.586228433084164716e-84
1.730249999999993804e+01 2.285609677265289852e-83
1.751624999999994259e+01 3.746194379143830577e-83
1.772999999999994714e+01 4.980357769645473382e-83
1.794374999999993747e+01 5.474304554042063564e-83
1.815749999999994202e+01 4.621245008468338563e-83
1.837124999999994657e+01 1.847423660337537986e-83
1.858499999999993690e+01 -3.194826373597643419e-83
1.879874999999994145e+01 -1.038431045329012527e-82
1.901249999999994600e+01 -1.888121608741296631e-82
1.922624999999993634e+01 -2.694107152797472181e-82
1.943999999999994088e+01 -3.188675796188947870e-82
1.965374999999994543e+01 -3.034254734747913848e-82
1.986749999999993577e+01 -1.881845845004639945e-82
2.008124999999994031e+01 5.318283399245194481e-83
2.029499999999994486e+01 4.254133360725808172e-82
2.050874999999993520e+01 8.972209875608532879e-82
2.072249999999993975e+01 1.388902141212664718e-81
2.093624999999994429e+01 1.766883673331178956e-81
2.114999999999993463e+01 1.850991430067578256e-81
2.136374999999993918e+01 1.439884010502954339e-81
2.157749999999994373e+01 3.579474557109147337e-82
2.179124999999993406e+01 -1.477462753811042282e-81
2.200499999999993861e+01 -3.976244798371503259e-81
2.221874999999994316e+01 -6.799404405152693227e-81
2.243249999999993349e+01 -9.311207807386933344e-81
2.264624999999993804e+01 -1.059051336364596495e-80
2.285999999999994259e+01 -9.532881520898645948e-81
2.307374999999993292e+01 -5.066840432914696769e-81
2.328749999999993747e+01 3.512299909347091894e-81
2.350124999999994202e+01 1.612041286997026986e-80
2.371499999999993236e+01 3.144683882775059309e-80
2.392874999999993690e+01 4.662054715957323593e-80
2.414249999999994145e+01 5.713885078303575387e-80
2.435624999999993179e+01 5.723236402902676370e-80
2.456999999999993634e+01 4.081236970665040635e-80
2.478374999999994088e+01 3.060188440011253913e-81
2.499749999999993122e+01 -5.743600918279666995e-80
2.521124999999993577e+01 -1.363066537333309030e-79
2.542499999999994031e+01 -2.213458907148270484e-79
2.563874999999993065e+01 -2.915595924116140039e-79
2.585249999999993520e+01 -3.182244219204497566e-79
2.606624999999993975e+01 -2.687957782398488134e-79
2.627999999999994429e+01 -1.141465702228550056e-79
2.649374999999993463e+01 1.610799377791594532e-79
2.670749999999993918e+01 5.462500875463356260e-79
2.692124999999994373e+01 9.931455974749175713e-79
2.713499999999993406e+01 1.408706497014609881e-78
2.734874999999993861e+01 1.656641083237459989e-78
2.756249999999994316e+01 1.572389048756226144e-78
2.777624999999993349e+01 9.945512293409872019e-79
2.798999999999993804e+01 -1.871387227909091721e-79
2.820374999999994259e+01 -1.971964400661538969e-78
2.841749999999993292e+01 -4.187160162926975986e-78
2.863124999999993747e+01 -6.442495874825630912e-78
2.884499999999994202e+01 -8.122108501697206232e-78
2.905874999999993236e+01 -8.436251310036094427e-78
2.927249999999993690e+01 -6.550759812204478244e-78
2.948624999999994145e+01 -1.799405024489537373e-78
2.969999999999993179e+01 6.036620801434850327e-78
2.991374999999993634e+01 1.642549477153753207e-77
3.012749999999994088e+01 2.783127321936465724e-77
3.034124999999993122e+01 3.760862805760473395e-77
3.055499999999993577e+01 4.215459060569604281e-77
3.076874999999994031e+01 3.741080293129398660e-77
3.098249999999993065e+01 1.975983481380655771e-77
3.119624999999993520e+01 -1.272944136655701435e-77
3.140999999999993975e+01 -5.887461376213627172e-77
3.162374999999993008e+01 -1.130764452008028760e-76
3.183749999999993463e+01 -1.645696129393321484e-76
3.205124999999993918e+01 -1.977248546624375682e-76
3.226499999999992951e+01 -1.938618993024334009e-76
3.247874999999993406e+01 -1.348459492850975027e-76
3.269249999999993861e+01 -8.381868260373789388e-78
3.290624999999992895e+01 1.855971363142888058e-76
3.311999999999993349e+01 4.286610061687170751e-76
3.333374999999993804e+01 6.795310328548872542e-76
3.354749999999992838e+01 8.738160797350241199e-76
3.376124999999993292e+01 9.299676119544847072e-76
3.397499999999993747e+01 7.629326439577785325e-76
3.418874999999992781e+01 3.055983976976569181e-76
3.440249999999993236e+01 -4.639752492735130073e-76
3.461624999999993690e+01 -1.494119972346425146e-75
3.482999999999992724e+01 -2.637091808542726239e-75
3.504374999999993179e+01 -3.641629234365768850e-75
3.525749999999993634e+01 -4.169914915574006769e-75
3.547124999999992667e+01 -3.846232962646184796e-75
3.568499999999993122e+01 -2.339528785370091163e-75
3.589874999999993577e+01 5.260540335834958494e-76
3.611249999999992610e+01 4.649004870771388161e-75
3.632624999999993065e+01 9.543948833207270713e-75
3.653999999999993520e+01 1.428690153745294198e-74
3.675374999999992554e+01 1.755154281851076013e-74
3.696749999999993008e+01 1.776988491654566868e-74
3.718124999999993463e+01 1.343308607010023843e-74
3.739499999999992497e+01 3.518086217638921616e-75
3.760874999999992951e+01 -1.201447142815637856e-74
3.782249999999993406e+01 -3.174981759866490241e-74
3.803624999999993861e+01 -5.251321936491587362e-74
3.824999999999994316e+01 -6.938523029525036031e-74
3.846374999999991928e+01 -7.618130238795147048e-74
3.867749999999992383e+01 -6.648189747239714057e-74
3.889124999999992838e+01 -3.519355438144022535e-74
3.910499999999993292e+01 1.952667852592661217e-74
3.931874999999993747e+01 9.432129592998154043e-74
3.953249999999994202e+01 1.791522543768075226e-73
3.974624999999991815e+01 2.568839660921768460e-73
3.995999999999992269e+01 3.045088520002571628e-73
4.017374999999992724e+01 2.964244883253030918e-73
4.038749999999993179e+01 2.098204758886067244e-73
4.060124999999993634e+01 3.171496092198888236e-74
4.081499999999994088e+01 -2.334423768748309495e-73
4.102874999999991701e+01 -5.572958325736140038e-73
4.124249999999992156e+01 -8.843704830287867132e-73
4.145624999999992610e+01 -1.134330790909680156e-72
4.166999999999993065e+01 -1.211467662085793805e-72
4.188374999999993520e+01 -1.022079118039180317e-72
4.209749999999993975e+01 -4.986940910760175309e-73
4.231124999999991587e+01 3.720722415301015676e-73
4.252499999999992042e+01 1.523484223760750474e-72
4.273874999999992497e+01 2.791711888295085129e-72
4.295249999999992951e+01 3.915854281350318252e-72
4.316624999999993406e+01 4.561891146563741987e-72
4.337999999999993861e+01 4.374357011928349108e-72
4.359374999999991473e+01 3.054201129708743741e-72
4.380749999999991928e+01 4.542367547508444699e-73
4.402124999999992383e+01 -3.324128750537932218e-72
4.423499999999992838e+01 -7.855899158179736575e-72
4.444874999999993292e+01 -1.236590754463530892e-71
4.466249999999993747e+01 -1.577587641918912989e-71
4.487624999999991360e+01 -1.684221055339691607e-71
4.508999999999991815e+01 -1.438626190767888641e-71
4.530374999999992269e+01 -7.597294290110699319e-72
4.551749999999992724e+01 3.636351862762296271e-72
4.573124999999993179e+01 1.843553953744777804e-71
4.594499999999993634e+01 3.476113209563711276e-71
4.615874999999991246e+01 4.945163932788128719e-71
4.637249999999991701e+01 5.853383970846182295e-71
4.658624999999992156e+01 5.783237358408848168e-71
4.679999999999992610e+01 4.384418163385577269e-71
4.701374999999993065e+01 1.477090928935783865e-71
4.722749999999993520e+01 -2.847019139594717804e-71
4.744124999999993975e+01 -8.149180691306548581e-71
4.765499999999991587e+01 -1.361934817549766977e-70
4.786874999999992042e+01 -1.812534491838989113e-70
4.808249999999992497e+01 -2.034873180681904821e-70
4.829624999999992951e+01 -1.900562214848056108e-70
4.850999999999993406e+01 -1.313164547059076704e-70
4.872374999999993861e+01 -2.390154909152324517e-71
4.893749999999991473e+01 1.265421146479981719e-70
4.915124999999991928e+01 3.036377037942969327e-70
4.936499999999992383e+01 4.802248579495958640e-70
4.957874999999992838e+01 6.204507734277082218e-70
4.979249999999993292e+01 6.841781666233498056e-70
5.000624999999993747e+01 6.334692877117682627e-70
5.021999999999991360e+01 4.404489852067187010e-70
5.043374999999991815e+01 9.543670971809006565e-71
5.064749999999992269e+01 -3.860418417512750077e-70
5.086124999999992724e+01 -9.588232697348857914e-70
5.107499999999993179e+01 -1.547539550172212175e-69
5.128874999999993634e+01 -2.050793349993263197e-69
5.150249999999991246e+01 -2.350384727151937037e-69
5.171624999999991701e+01 -2.325276877852669301e-69
5.192999999999992156e+01 -1.869431454379138468e-69
5.214374999999992610e+01 -9.122342051732561641e-70
5.235749999999993065e+01 5.600237438757115593e-70
5.257124999999993520e+01 2.483338566529674112e-69
5.278499999999991132e+01 4.697909490229485414e-69
5.299874999999991587e+01 6.935490987120504148e-69
5.321249999999992042e+01 8.816054405333166899e-69
5.342624999999992497e+01 9.859231167430939080e-69
5.363999999999992951e+01 9.517651047228637803e-69
5.385374999999993406e+01 7.240154545853273817e-69
5.406749999999991019e+01 2.571745552076172467e-69
5.428124999999991473e+01 -4.707321121713308815e-69
5.449499999999991928e+01 -1.440991042838241953e-68
5.470874999999992383e+01 -2.575829809992556740e-68
5.492249999999992838e+01 -3.722652582754170077e-68
5.513624999999993292e+01 -4.646541148235141135e-68
5.534999999999990905e+01 -5.038077012048180754e-68
5.556374999999991360e+01 -4.543778505602957428e-68
5.577749999999991815e+01 -2.824743568296039436e-68
5.599124999999992269e+01 3.552177772624236890e-69
5.620499999999992724e+01 5.017862854755581107e-68
5.641874999999993179e+01 1.085077146699086992e-67
5.663249999999990791e+01 1.710595065281746718e-67
5.684624999999991246e+01 2.255275426374328113e-67
5.705999999999991701e+01 2.552617460018739638e-67
5.727374999999992156e+01 2.410840476247788797e-67
5.748749999999992610e+01 1.646673206508344865e-67
5.770124999999993065e+01 1.342293609306034901e-68
5.791499999999990678e+01 -2.135734452909135566e-67
5.812874999999991132e+01 -4.995899447220652288e-67
5.834249999999991587e+01 -8.056514584196163413e-67
5.855624999999992042e+01 -1.069193869492538362e-66
5.876999999999992497e+01 -1.207868509613459916e-66
5.898374999999992951e+01 -1.130027843292098232e-66
5.919749999999990564e+01 -7.524779808663977991e-67
5.941124999999991019e+01 -2.454552889083994071e-68
5.962499999999991473e+01 1.044510605251310546e-66
5.983874999999991928e+01 2.359919917547211572e-66
6.005249999999992383e+01 3.724763587066010769e-66
6.026624999999992838e+01 4.840439468048931142e-66
6.047999999999990450e+01 5.331894059574806840e-66
6.069374999999990905e+01 4.802681665730136552e-66
6.090749999999991360e+01 2.919899578602818097e-66
6.112124999999991815e+01 -4.781988838564645746e-67
6.133499999999992269e+01 -5.267797517073590713e-66
6.154874999999992724e+01 -1.094282858000762915e-65
6.176249999999993179e+01 -1.656695510095618697e-65
6.197624999999990791e+01 -2.080691968796462152e-65
6.218999999999991246e+01 -2.207455989862422688e-65
6.240374999999991701e+01 -1.879051062748726013e-65
6.261749999999992156e+01 -9.759115917086859547e-66
6.283124999999992610e+01 5.386893683585011421e-66
6.304499999999993065e+01 2.574755399185205431e-65
6.325874999999990678e+01 4.882874738264950499e-65
6.347249999999991132e+01 7.045135375233453576e-65
6.368624999999991587e+01 8.501673366421637109e-65
6.389999999999992042e+01 8.621484286619926318e-65
6.411374999999992497e+01 6.819289084443457657e-65
6.432749999999992951e+01 2.710169515906557605e-65
6.454124999999990564e+01 -3.718569806435792784e-65
6.475499999999991019e+01 -1.195129614608404638e-64
6.496874999999991473e+01 -2.084645447071270629e-64
6.518249999999991928e+01 -2.864396716339810008e-64
6.539624999999992383e+01 -3.311848862236314888e-64
6.560999999999992838e+01 -3.190196518957162788e-64
6.582374999999990450e+01 -2.296910084919298680e-64
6.603749999999990905e+01 -5.239038679859275007e-65
6.625124999999991360e+01 2.079893435530284477e-64
6.646499999999991815e+01 5.257005660492155728e-64
6.667874999999992269e+01 8.517134519666772172e-64
6.689249999999992724e+01 1.115649573418707848e-63
6.710624999999990337e+01 1.233352965186415859e-63
6.731999999999990791e+01 1.120581560413426138e-63
6.753374999999991246e+01 7.120875142955358520e-64
6.774749999999991701e+01 -1.616427024929681299e-65
6.796124999999992156e+01 -1.025482613470514506e-63
6.817499999999992610e+01 -2.198812853185125944e-63
6.838874999999990223e+01 -3.336804268748414290e-63
6.860249999999990678e+01 -4.170987772659474825e-63
6.881624999999991132e+01 -4.397650397783628174e-63
6.902999999999991587e+01 -3.732660309721378669e-63
6.924374999999992042e+01 -1.982834690093936352e-63
6.945749999999992497e+01 8.759875665982521889e-64
6.967124999999990109e+01 4.629258582182929532e-63
6.988499999999990564e+01 8.781319848279244991e-63
7.009874999999991019e+01 1.256014367132483887e-62
7.031249999999991473e+01 1.498589057115650590e-62
7.052624999999991928e+01 1.501180116549533631e-62
7.073999999999992383e+01 1.173281171606711631e-62
7.095374999999989996e+01 4.640302703650732709e-63
7.116749999999990450e+01 -6.117023033392762621e-63
7.138124999999990905e+01 -1.952234378725823529e-62
7.159499999999991360e+01 -3.359573659189494897e-62
7.180874999999991815e+01 -4.547896078307833323e-62
7.202249999999992269e+01 -5.174712677132245840e-62
7.223624999999989882e+01 -4.896076946174597011e-62
7.244999999999990337e+01 -3.442293046886017495e-62
7.266374999999990791e+01 -7.047066184673851632e-63
7.287749999999991246e+01 3.181740806030565500e-62
7.309124999999991701e+01 7.780115487464742022e-62
7.330499999999992156e+01 1.233897574803946943e-61
7.351874999999989768e+01 1.584504383510634548e-61
7.373249999999990223e+01 1.715276826742335648e-61
7.394624999999990678e+01 1.518953419831038141e-61
7.415999999999991132e+01 9.217987687081085761e-62
7.437374999999991587e+01 -8.823711430730024862e-63
7.458749999999992042e+01 -1.436989330150447319e-61
7.480124999999992497e+01 -2.949895531891195568e-61
7.501499999999990109e+01 -4.354950111685036171e-61
7.522874999999990564e+01 -5.308170658996718287e-61
7.544249999999991019e+01 -5.443844445502332959e-61
7.565624999999991473e+01 -4.447122182277358543e-61
7.586999999999991928e+01 -2.140725671932843427e-61
7.608374999999992383e+01 1.428454186329818155e-61
7.629749999999989996e+01 5.922002821565920459e-61
7.651124999999990450e+01 1.068336692223316230e-60
7.672499999999990905e+01 1.477188321666340224e-60
7.693874999999991360e+01 1.707080202522927771e-60
7.715249999999991815e+01 1.647089489013382641e-60
7.736624999999992269e+01 1.211509666740565939e-60
7.757999999999989882e+01 3.671207129277563439e-61
7.779374999999990337e+01 -8.417721544866891458e-61
7.800749999999990791e+01 -2.276784651874682739e-60
7.822124999999991246e+01 -3.703883303309355945e-60
7.843499999999991701e+01 -4.812189866621037031e-60
7.864874999999992156e+01 -5.255879854545798663e-60
7.886249999999989768e+01 -4.717726638050519455e-60
7.907624999999990223e+01 -2.987599357274431132e-60
7.928999999999990678e+01 -4.370564069510406390e-62
7.950374999999991132e+01 3.880291844532630742e-60
7.971749999999991587e+01 8.261647754531924223e-60
7.993124999999992042e+01 1.230680983452441854e-59
8.014499999999989654e+01 1.503469698637833871e-59
8.035874999999990109e+01 1.542812994918428310e-59
8.057249999999990564e+01 1.264265624505277054e-59
8.078624999999991019e+01 6.245912633017278555e-60
8.099999999999991473e+01 -3.554785552591618112e-60
8.121374999999991928e+01 -1.575013098746491495e-59
8.142749999999989541e+01 -2.848836711275098912e-59
8.164124999999989996e+01 -3.920491828879689684e-59
8.185499999999990450e+01 -4.494870195429660877e-59
8.206874999999990905e+01 -4.289726395780244513e-59
8.228249999999991360e+01 -3.100905902770282160e-59
8.249624999999991815e+01 -8.714640723561602166e-60
8.270999999999989427e+01 2.249141252040297350e-59
8.292374999999989882e+01 5.871843049330141760e-59
8.313749999999990337e+01 9.376242647740818572e-59
8.335124999999990791e+01 1.197173541892706687e-58
8.356499999999991246e+01 1.281491311828021633e-58
8.377874999999991701e+01 1.117547083304550016e-58
8.399249999999989313e+01 6.629804939508979894e-59
8.420624999999989768e+01 -7.511153154195670399e-60
8.441999999999990223e+01 -1.026228468937501035e-58
8.463374999999990678e+01 -2.051913398753259476e-58
8.484749999999991132e+01 -2.954524950404601248e-58
8.506124999999991587e+01 -3.501590045932684318e-58
8.527499999999989200e+01 -3.465301748168029144e-58
8.548874999999989654e+01 -2.673289825417851271e-58
8.570249999999990109e+01 -1.063129648643323193e-58
8.591624999999990564e+01 1.270101549327210039e-58
8.612999999999991019e+01 4.045716159597067531e-58
8.634374999999991473e+01 6.800888517945843529e-58
8.655749999999989086e+01 8.934721247344347395e-58
8.677124999999989541e+01 9.795869438059687511e-58
8.698499999999989996e+01 8.808123356599680099e-58
8.719874999999990450e+01 5.618366410957041740e-58
8.741249999999990905e+01 2.416596702508731676e-59
8.762624999999991360e+01 -6.828938413391161144e-58
8.783999999999991815e+01 -1.458249797733247505e-57
8.805374999999989427e+01 -2.155042019191453948e-57
8.826749999999989882e+01 -2.598435252357108209e-57
8.848124999999990337e+01 -2.614930140766349518e-57
8.869499999999990791e+01 -2.070365786647352810e-57
8.890874999999991246e+01 -9.110347811357675905e-58
8.912249999999991701e+01 8.000478958311326175e-58
8.933624999999989313e+01 2.861060864149729859e-57
8.954999999999989768e+01 4.932593365519742924e-57
8.976374999999990223e+01 6.569015355726947845e-57
8.997749999999990678e+01 7.282417529074902611e-57
9.019124999999991132e+01 6.635232778223189091e-57
9.040499999999991587e+01 4.350271027938426708e-57
9.061874999999989200e+01 4.197137192190005066e-58
9.083249999999989654e+01 -4.810769059504544504e-57
9.104624999999990109e+01 -1.060849241923584606e-56
9.125999999999990564e+01 -1.589344328292724537e-56
9.147374999999991019e+01 -1.936490893501244109e-56
9.168749999999991473e+01 -1.971424746015621118e-56
9.190124999999989086e+01 -1.590425716137942285e-56
9.211499999999989541e+01 -7.475397622208008850e-57
9.232874999999989996e+01 5.178663103033193705e-57
9.254249999999990450e+01 2.063452262530049230e-56
9.275624999999990905e+01 3.642935731394352711e-56
9.296999999999991360e+01 4.927072671379760711e-56
9.318374999999988972e+01 5.548757790863258715e-56
9.339749999999989427e+01 5.169931026734159660e-56
9.361124999999989882e+01 3.562639282983522681e-56
9.382499999999990337e+01 6.912926885615334752e-57
9.403874999999990791e+01 -3.220995098878487589e-56
9.425249999999991246e+01 -7.660859386510478364e-56
9.446624999999988859e+01 -1.184510870630693467e-55
9.467999999999989313e+01 -1.480446871218148440e-55
9.489374999999989768e+01 -1.553203373580415760e-55
9.510749999999990223e+01 -1.318459945043071141e-55
9.532124999999990678e+01 -7.310394959369038361e-56
9.553499999999991132e+01 1.936714713834439502e-56
9.574874999999988745e+01 1.364555290877938910e-55
9.596249999999989200e+01 2.610898447729370267e-55
9.617624999999989654e+01 3.694020526641936537e-55
9.638999999999990109e+01 4.336600860589436012e-55
9.660374999999990564e+01 4.268876009843841951e-55
9.681749999999991019e+01 3.287129849169758836e-55
9.703124999999988631e+01 1.315993425643876996e-55
9.724499999999989086e+01 -1.537222865602917837e-55
9.745874999999989541e+01 -4.949768657995648706e-55
9.767249999999989996e+01 -8.385423129933647975e-55
9.788624999999990450e+01 -1.114106847433901691e-54
9.809999999999990905e+01 -1.244146889441363501e-54
9.831374999999988518e+01 -1.157701914763825600e-54
9.852749999999988972e+01 -8.068892316532008626e-55
9.874124999999989427e+01 -1.835865962203763791e-55
9.895499999999989882e+01 6.670736989591437949e-55
9.916874999999990337e+01 1.640083089818018893e-54
9.938249999999990791e+01 2.574164208019984366e-54
9.959624999999988404e+01 3.267861931008127301e-54
9.980999999999988859e+01 3.508496100875213190e-54
1.000237499999998931e+02 3.111862502642809556e-54
1.002374999999998977e+02 1.967789717603809589e-54
1.004512499999999022e+02 8.407126553376847355e-56
1.006649999999999068e+02 -2.380530224555959798e-54
1.008787499999998829e+02 -5.103984410364646970e-54
1.010924999999998875e+02 -7.617827541257108583e-54
1.013062499999998920e+02 -9.358137540651070943e-54
1.015199999999998965e+02 -9.750269374182102130e-54
1.017337499999999011e+02 -8.320134080034995724e-54
1.019474999999999056e+02 -4.817475698445417508e-54
1.021612499999999102e+02 6.699032508072337014e-55
1.023749999999998863e+02 7.636174081698998055e-54
1.025887499999998909e+02 1.513731092421444927e-53
1.028024999999998954e+02 2.185163309206907822e-53
1.030162499999999000e+02 2.623193688126112258e-53
1.032299999999999045e+02 2.674511056626041645e-53
1.034437499999999091e+02 2.217678361859573533e-53
1.036574999999998852e+02 1.195953401427520406e-53
1.038712499999998897e+02 -3.532990155564422118e-54
1.040849999999998943e+02 -2.279303370246828323e-53
1.042987499999998988e+02 -4.315262444342038904e-53
1.045124999999999034e+02 -6.097591167154606008e-53
1.047262499999999079e+02 -7.209318247615186010e-53
1.049399999999998840e+02 -7.245922023918107471e-53
1.051537499999998886e+02 -5.897037596518088152e-53
1.053674999999998931e+02 -3.032597581827273339e-53
1.055812499999998977e+02 1.222018710517920193e-53
1.057949999999999022e+02 6.439341460345576170e-53
1.060087499999999068e+02 1.188845908587259836e-52
1.062224999999998829e+02 1.659158704215369681e-52
1.064362499999998875e+02 1.944347035518932095e-52
1.066499999999998920e+02 1.938779733281223580e-52
1.068637499999998965e+02 1.563229814358309331e-52
1.070774999999999011e+02 7.871859072141547822e-53
1.072912499999999056e+02 -3.520789531139343221e-53
1.075049999999998818e+02 -1.738190178589733090e-52
1.077187499999998863e+02 -3.176342677923701710e-52
1.079324999999998909e+02 -4.409043771913874259e-52
1.081462499999998954e+02 -5.147965746015723433e-52
1.083599999999999000e+02 -5.120161338987369145e-52
1.085737499999999045e+02 -4.123708060115491677e-52
1.087874999999998806e+02 -2.084756955109879062e-52
1.090012499999998852e+02 8.944196682316550669e-53
1.092149999999998897e+02 4.507822348995681067e-52
1.094287499999998943e+02 8.249144033243597760e-52
1.096424999999998988e+02 1.145371929095729520e-51
1.098562499999999034e+02 1.338121133751811428e-51
1.100699999999998795e+02 1.333415837926678734e-51
1.102837499999998840e+02 1.079949744203311580e-51
1.104974999999998886e+02 5.592534822700925846e-52
1.107112499999998931e+02 -2.022932564489848212e-52
1.109249999999998977e+02 -1.126695541755194186e-51
1.111387499999999022e+02 -2.085438860699514229e-51
1.113524999999998784e+02 -2.910265098288426902e-51
1.115662499999998829e+02 -3.414106628181690374e-51
1.117799999999998875e+02 -3.420885258980806075e-51
1.119937499999998920e+02 -2.800903502383269031e-51
1.122074999999998965e+02 -1.506685076836751491e-51
1.124212499999999011e+02 3.972640175229478776e-52
1.126349999999998772e+02 2.717823166090699139e-51
1.128487499999998818e+02 5.136145013722343807e-51
1.130624999999998863e+02 7.234446531991535577e-51
1.132762499999998909e+02 8.547763650608889338e-51
1.134899999999998954e+02 8.637382983988922829e-51
1.137037499999999000e+02 7.177844998075876457e-51
1.139174999999998761e+02 4.044897077156084774e-51
1.141312499999998806e+02 -6.115274434986065186e-52
1.143449999999998852e+02 -6.326408428473227110e-51
1.145587499999998897e+02 -1.232624018311987715e-50
1.147724999999998943e+02 -1.759362840120519069e-50
1.149862499999998988e+02 -2.099231196744088464e-50
1.151999999999998749e+02 -2.144456237908019403e-50
1.154137499999998795e+02 -1.814136685286369674e-50
1.156274999999998840e+02 -1.075504656533460872e-50
1.158412499999998886e+02 3.838363072866108121e-52
1.160549999999998931e+02 1.418612935968284096e-50
1.162687499999998977e+02 2.881703110503785124e-50
1.164824999999999022e+02 4.184725033004366079e-50
1.166962499999998784e+02 5.054814059216406500e-50
1.169099999999998829e+02 5.231177980821955208e-50
1.171237499999998875e+02 4.514975289244437979e-50
1.173374999999998920e+02 2.819914498843293571e-50
1.175512499999998965e+02 2.146023758688341452e-51
1.177649999999999011e+02 -3.052955323379195386e-50
1.179787499999998772e+02 -6.557328384392993436e-50
1.181924999999998818e+02 -9.729982101152870559e-50
1.184062499999998863e+02 -1.192734981672638915e-49
1.186199999999998909e+02 -1.252830946938745704e-49
1.188337499999998954e+02 -1.105040980659863821e-49
1.190474999999999000e+02 -7.268349408491716959e-50
1.192612499999998761e+02 -1.313994384743451368e-50
1.194749999999998806e+02 6.264237590643350828e-50
1.196887499999998852e+02 1.450260457781537279e-49
1.199024999999998897e+02 2.209757170602046847e-49
1.201162499999998943e+02 2.755916525015313562e-49
1.203299999999998988e+02 2.943255281233907346e-49
1.205437499999998749e+02 2.656388716279067493e-49
1.207574999999998795e+02 1.837313076719698163e-49
1.209712499999998840e+02 5.086924992195753659e-50
1.211849999999998886e+02 -1.211886811507690804e-49
1.213987499999998931e+02 -3.111254063093499851e-49
1.216124999999998977e+02 -4.896744344206019194e-49
1.218262499999998738e+02 -6.229932154038974290e-49
1.220399999999998784e+02 -6.775965067599445323e-49
1.222537499999998829e+02 -6.263236663558633974e-49
1.224674999999998875e+02 -4.545145243988968415e-49
1.226812499999998920e+02 -1.653499345744215641e-49
1.228949999999998965e+02 2.167682647511727454e-49
1.231087499999998727e+02 6.458229965097753913e-49
1.233224999999998772e+02 1.057495175723938247e-48
1.235362499999998818e+02 1.376409427509065522e-48
1.237499999999998863e+02 1.526893277024826649e-48
1.239637499999998909e+02 1.446121773252998016e-48
1.241774999999998954e+02 1.097856862868736341e-48
1.243912499999998715e+02 4.845015388293912840e-49
1.246049999999998761e+02 -3.450037766214090025e-49
1.248187499999998806e+02 -1.293713846328514784e-48
1.250324999999998852e+02 -2.223268104793076457e-48
1.252462499999998897e+02 -2.969099138484782341e-48
1.254599999999998943e+02 -3.363432415792655374e-48
1.256737499999998704e+02 -3.263711614916226032e-48
1.258874999999998749e+02 -2.582637030921859903e-48
1.261012499999998795e+02 -1.314921823560831175e-48
1.263149999999998840e+02 4.445815984373978275e-49
1.265287499999998886e+02 2.496344175007288459e-48
1.267424999999998931e+02 4.548834332316982412e-48
1.269562499999998693e+02 6.249778947753018736e-48