2.024999999999579359e-01 2.728122047157190540e-121
4.162499999999482725e-01 3.199917782646506760e-121
6.299999999999528200e-01 2.629028093054098622e-121
8.437499999999573674e-01 9.515652198516954144e-123
1.057499999999947704e+00 -5.405079882159657082e-121
1.271249999999952252e+00 -1.455760537276545002e-120
1.484999999999956799e+00 -2.703476721354461231e-120
1.698749999999947136e+00 -4.051438081287532620e-120
1.912499999999951683e+00 -4.957594902433163820e-120
2.126249999999956231e+00 -4.487496864273413431e-120
2.339999999999946567e+00 -1.330232972151502301e-120
2.553749999999951115e+00 5.986610830978775131e-120
2.767499999999955662e+00 1.856871397773059791e-119
2.981249999999945999e+00 3.622545805461035533e-119
3.194999999999950546e+00 5.614752233843068261e-119
3.408749999999955094e+00 7.139604674900013256e-119
3.622499999999945430e+00 6.971573407522708246e-119
3.836249999999949978e+00 3.357718863727532447e-119
4.049999999999954525e+00 -5.726391612630946148e-119
4.263749999999944862e+00 -2.192221195073322468e-118
4.477499999999949409e+00 -4.531979059654209071e-118
4.691249999999953957e+00 -7.277792976872178880e-118
4.904999999999944293e+00 -9.597465175086007611e-118
5.118749999999948841e+00 -9.980450242518494842e-118
5.332499999999953388e+00 -6.221626348457867664e-118
5.546249999999943725e+00 4.295038897587949795e-118
5.759999999999948272e+00 2.383424349930210459e-117
5.973749999999952820e+00 5.292500665969920115e-117
6.187499999999943157e+00 8.834634398531274308e-117
6.401249999999947704e+00 1.207507206460401342e-116
6.614999999999952252e+00 1.326244892647316270e-116
6.828749999999942588e+00 9.783334389142693787e-117
7.042499999999947136e+00 -1.546178991361842372e-117
7.256249999999951683e+00 -2.364572853563034062e-116
7.469999999999942020e+00 -5.762313761677619342e-116
7.683749999999946567e+00 -1.004914076972448128e-115
7.897499999999951115e+00 -1.424278518674996107e-115
8.111249999999941451e+00 -1.643233941170862894e-115
8.324999999999945999e+00 -1.369692620911368474e-115
8.538749999999950546e+00 -2.381925783225288761e-116
8.752499999999940883e+00 2.104154755595440785e-115
8.966249999999945430e+00 5.834323534040059198e-115
9.179999999999949978e+00 1.070858821225062354e-114
9.393749999999940314e+00 1.576319983939005799e-114
9.607499999999944862e+00 1.903606835520080528e-114
9.821249999999949409e+00 1.744714286707223117e-114
1.003499999999993975e+01 7.037053101783996496e-115
1.024874999999994429e+01 -1.620123638608744966e-114
1.046249999999994884e+01 -5.469394561905838707e-114
1.067624999999993918e+01 -1.068021954469377872e-113
1.088999999999994373e+01 -1.637253000586763549e-113
1.110374999999994827e+01 -2.065123471027858538e-113
1.131749999999993861e+01 -2.045155037350464754e-113
1.153124999999994316e+01 -1.172352273256997927e-113
1.174499999999994770e+01 9.812252313785296531e-114
1.195874999999993804e+01 4.713069598124427424e-113
1.217249999999994259e+01 9.951509342486203911e-113
1.238624999999994714e+01 1.595217793658707472e-112
1.259999999999993747e+01 2.099466991068584136e-112
1.281374999999994202e+01 2.220183345814826474e-112
1.302749999999994657e+01 1.566265382623729153e-112
1.324124999999995111e+01 -2.923411693015780201e-113
1.345499999999994145e+01 -3.688106882527224638e-112
1.366874999999994600e+01 -8.638709359322321940e-112
1.388249999999995055e+01 -1.456521496774342362e-111
1.409624999999994088e+01 -2.000114758337045295e-111
1.430999999999994543e+01 -2.239916038040400897e-111
1.452374999999994998e+01 -1.819479571292532950e-111
1.473749999999994031e+01 -3.321638830432760993e-112
1.495124999999994486e+01 2.563977182128880579e-111
1.516499999999994941e+01 6.959018130701383638e-111
1.537874999999993975e+01 1.244339933318907930e-110
1.559249999999994429e+01 1.784452376354567443e-110
1.580624999999994884e+01 2.103609249175442506e-110
1.601999999999993918e+01 1.895375489212512965e-110
1.623374999999994373e+01 7.981593070696599830e-111
1.644749999999994827e+01 -1.513292723350898277e-110
1.666124999999993861e+01 -5.175078163243414920e-110
1.687499999999994316e+01 -9.927966242506509806e-110
1.708874999999994770e+01 -1.489254264773086643e-109
1.730249999999993804e+01 -1.839537665010261658e-109
1.751624999999994259e+01 -1.795261803389797284e-109
1.772999999999994714e+01 -1.054320753122476942e-109
1.794374999999993747e+01 6.699695612434992972e-110
1.815749999999994202e+01 3.530525331870343319e-109
1.837124999999994657e+01 7.384129525202631161e-109
1.858499999999993690e+01 1.161071297692565849e-108
1.879874999999994145e+01 1.496683847047407734e-108
1.901249999999994600e+01 1.555415394125478062e-108
1.922624999999993634e+01 1.100358264084754354e-108
1.943999999999994088e+01 -1.025984922725881967e-109
1.965374999999994543e+01 -2.197589960489442420e-108
1.986749999999993577e+01 -5.117685780724716159e-108
2.008124999999994031e+01 -8.448347789520452519e-108
2.029499999999994486e+01 -1.131356586900563981e-107
2.050874999999993520e+01 -1.234329109334009145e-107
2.072249999999993975e+01 -9.795114599717805454e-108
2.093624999999994429e+01 -1.901379485553408581e-108
2.114999999999993463e+01 1.251634100846723625e-107
2.136374999999993918e+01 3.318992972571549726e-107
2.157749999999994373e+01 5.743592371155361804e-107
2.179124999999993406e+01 7.934423257826888777e-107
2.200499999999993861e+01 8.953386315459709772e-107
2.221874999999994316e+01 7.597859496810759263e-107
2.243249999999993349e+01 2.638279083633816691e-107
2.264624999999993804e+01 -6.762848963697731690e-107
2.285999999999994259e+01 -2.047120422314725452e-106
2.307374999999993292e+01 -3.673473005197596196e-106
2.328749999999993747e+01 -5.165886378130412715e-106
2.350124999999994202e+01 -5.908128701875462095e-106
2.371499999999993236e+01 -5.117872056410809890e-106
2.392874999999993690e+01 -2.010843390636098013e-106
2.414249999999994145e+01 3.917692549120344122e-106
2.435624999999993179e+01 1.251374783156436568e-105
2.456999999999993634e+01 2.255785030389298330e-105
2.478374999999994088e+01 3.146179531819586739e-105
2.499749999999993122e+01 3.525611761172721045e-105
2.521124999999993577e+01 2.908201889342052774e-105
2.542499999999994031e+01 8.366635881983988799e-106
2.563874999999993065e+01 -2.926767024241624073e-105
2.585249999999993520e+01 -8.155102460994974068e-105
2.606624999999993975e+01 -1.391088393529956929e-104
2.627999999999994429e+01 -1.839358684441423500e-104
2.649374999999993463e+01 -1.900724318222604610e-104
2.670749999999993918e+01 -1.278496519671858213e-104
2.692124999999994373e+01 2.728785219288346937e-105
2.713499999999993406e+01 2.813893959887894182e-104
2.734874999999993861e+01 6.058214531902132950e-104
2.756249999999994316e+01 9.225239372724279884e-104
2.777624999999993349e+01 1.097561407007467558e-103
2.798999999999993804e+01 9.518336861387086090e-104
2.820374999999994259e+01 2.979137965604639955e-104
2.841749999999993292e+01 -9.913007499696497497e-104
2.863124999999993747e+01 -2.884429069174631231e-103
2.884499999999994202e+01 -5.079488282562925429e-103
2.905874999999993236e+01 -6.910814073816805925e-103
2.927249999999993690e+01 -7.326252112589531384e-103
2.948624999999994145e+01 -4.998535699526022707e-103
2.969999999999993179e+01 1.367159087907522314e-103
2.991374999999993634e+01 1.249448604215006644e-102
3.012749999999994088e+01 2.779213973921536355e-102
3.034124999999993122e+01 4.452950414634454870e-102
3.055499999999993577e+01 5.718363246494898401e-102
3.076874999999994031e+01 5.734054787438848513e-102
3.098249999999993065e+01 3.462282322400171489e-102
3.119624999999993520e+01 -2.090274702421900351e-102
3.140999999999993975e+01 -1.145836177579949563e-101
3.162374999999993008e+01 -2.414990456038704783e-101
3.183749999999993463e+01 -3.801467990445251030e-101
3.205124999999993918e+01 -4.873403963146278432e-101
3.226499999999992951e+01 -4.971280883527824823e-101
3.247874999999993406e+01 -3.272326671056709844e-101
3.269249999999993861e+01 1.035413301344865384e-101
3.290624999999992895e+01 8.448144940893089911e-101
3.311999999999993349e+01 1.872017703568891087e-100
3.333374999999993804e+01 3.037670501792657049e-100
3.354749999999992838e+01 4.029264465071354077e-100
3.376124999999993292e+01 4.353671488772953217e-100
3.397499999999993747e+01 3.373572467331678296e-100
3.418874999999992781e+01 4.222036878787421787e-101
3.440249999999993236e+01 -4.985027668124236295e-100
3.461624999999993690e+01 -1.284336559550275442e-99
3.482999999999992724e+01 -2.229122397541048941e-99
3.504374999999993179e+01 -3.126429762426223046e-99
3.525749999999993634e+01 -3.630573813876242204e-99
3.547124999999992667e+01 -3.271179614376318993e-99
3.568499999999993122e+01 -1.520891645822854331e-99
3.589874999999993577e+01 2.067935402649747923e-99
3.611249999999992610e+01 7.653513373971194532e-99
3.632624999999993065e+01 1.483937681025027283e-98
3.653999999999993520e+01 2.240220732154561308e-98
3.675374999999992554e+01 2.809829780523076180e-98
3.696749999999993008e+01 2.866903322251982457e-98
3.718124999999993463e+01 2.018539181744446712e-98
3.739499999999992497e+01 -1.141125641315890566e-99
3.760874999999992951e+01 -3.761685123570354941e-98
3.782249999999993406e+01 -8.825739586878596460e-98
3.803624999999993861e+01 -1.467723252981109360e-97
3.824999999999994316e+01 -1.998511803969452752e-97
3.846374999999991928e+01 -2.265139634450359942e-97
3.867749999999992383e+01 -1.994740165632526170e-97
3.889124999999992838e+01 -8.946870146050038515e-98
3.910499999999993292e+01 1.267794038652442305e-97
3.931874999999993747e+01 4.550109309939886927e-97
3.953249999999994202e+01 8.694944828911698812e-97
3.974624999999991815e+01 1.299487293908911052e-96
3.995999999999992269e+01 1.620626440957711607e-96
4.017374999999992724e+01 1.657292218177954930e-96
4.038749999999993179e+01 1.202606346029266349e-96
4.060124999999993634e+01 6.168088546922051829e-98
4.081499999999994088e+01 -1.879757573407375080e-96
4.102874999999991701e+01 -4.565705855536912931e-96
4.124249999999992156e+01 -7.672903613591573142e-96
4.145624999999992610e+01 -1.053156888370924873e-95
4.166999999999993065e+01 -1.209990947090755409e-95
4.188374999999993520e+01 -1.103562945890037017e-95
4.209749999999993975e+01 -5.906245552071103194e-96
4.231124999999991587e+01 4.435046284305185984e-96
4.252499999999992042e+01 2.031417176626008524e-95
4.273874999999992497e+01 4.060018073738577543e-95
4.295249999999992951e+01 6.209520379275192253e-95
4.316624999999993406e+01 7.915077905766758348e-95
4.337999999999993861e+01 8.377134824287882166e-95
4.359374999999991473e+01 6.648626820025072957e-95
4.380749999999991928e+01 1.822106883815433769e-95
4.402124999999992383e+01 -6.675278968828436950e-95
4.423499999999992838e+01 -1.869809389151705560e-94
4.444874999999993292e+01 -3.296768780804615840e-94
4.466249999999993747e+01 -4.672892076497227778e-94
4.487624999999991360e+01 -5.562471873895088454e-94
4.508999999999991815e+01 -5.396185822126502796e-94
4.530374999999992269e+01 -3.553451748522336762e-94
4.551749999999992724e+01 4.887777027267016454e-95
4.573124999999993179e+01 6.942920008092475284e-94
4.594499999999993634e+01 1.545555333864976491e-93
4.615874999999991246e+01 2.485815636744807918e-93
4.637249999999991701e+01 3.299960027879156964e-93
4.658624999999992156e+01 3.675888742784043397e-93
4.679999999999992610e+01 3.234465895277263836e-93
4.701374999999993065e+01 1.597019477932372129e-93
4.722749999999993520e+01 -1.506141109465413118e-93
4.744124999999993975e+01 -6.092372336927429766e-93
4.765499999999991587e+01 -1.176836379385594000e-92
4.786874999999992042e+01 -1.759286722275201684e-92
4.808249999999992497e+01 -2.201210982872115963e-92
4.829624999999992951e+01 -2.292969842366641894e-92
4.850999999999993406e+01 -1.797152842569521788e-92
4.872374999999993861e+01 -4.987043826138687307e-93
4.893749999999991473e+01 1.721394074500689835e-92
4.915124999999991928e+01 4.795633169726033481e-92
4.936499999999992383e+01 8.378107169306749187e-92
4.957874999999992838e+01 1.177613446002143531e-91
4.979249999999993292e+01 1.393821679035098300e-91
5.000624999999993747e+01 1.353464544909493901e-91
5.021999999999991360e+01 9.162416790492560820e-92
5.043374999999991815e+01 -3.100095921170605697e-93
5.064749999999992269e+01 -1.527231326997323812e-91
5.086124999999992724e+01 -3.483338739331474067e-91
5.107499999999993179e+01 -5.632274697050741527e-91
5.128874999999993634e+01 -7.499249253103600394e-91
5.150249999999991246e+01 -8.411665867969756441e-91
5.171624999999991701e+01 -7.568820724449611767e-91
5.192999999999992156e+01 -4.186446249785071849e-91
5.214374999999992610e+01 2.280688874344915909e-91
5.235749999999993065e+01 1.185435563566557907e-90
5.257124999999993520e+01 2.372882693626545942e-90
5.278499999999991132e+01 3.601854182331047444e-90
5.299874999999991587e+01 4.565486652152049252e-90
5.321249999999992042e+01 4.854364729192541402e-90
5.342624999999992497e+01 4.008735387213523691e-90
5.363999999999992951e+01 1.613533637353152844e-90
5.385374999999993406e+01 -2.565400817994028191e-90
5.406749999999991019e+01 -8.417488694880222652e-90
5.428124999999991473e+01 -1.532444717069055367e-89
5.449499999999991928e+01 -2.204219947325374349e-89
5.470874999999992383e+01 -2.668394965070951466e-89
5.492249999999992838e+01 -2.686473358770394401e-89
5.513624999999993292e+01 -2.005792052789729036e-89
5.534999999999990905e+01 -4.185513360441246423e-90
5.556374999999991360e+01 2.158593312345658886e-89
5.577749999999991815e+01 5.594173845028210512e-89
5.599124999999992269e+01 9.458759052789936883e-89
5.620499999999992724e+01 1.297484414516172936e-88
5.641874999999993179e+01 1.503091642087688894e-88
5.663249999999990791e+01 1.429080350196134257e-88
5.684624999999991246e+01 9.421192802091053977e-89
5.705999999999991701e+01 -5.584281167410467481e-90
5.727374999999992156e+01 -1.582891239329131785e-88
5.748749999999992610e+01 -3.529219258366122534e-88
5.770124999999993065e+01 -5.616715592097818984e-88
5.791499999999990678e+01 -7.380613288120415144e-88
5.812874999999991132e+01 -8.189774575251562795e-88
5.834249999999991587e+01 -7.320982203861363519e-88
5.855624999999992042e+01 -4.096774289629722583e-88
5.876999999999992497e+01 1.915037092581220508e-88
5.898374999999992951e+01 1.065896756362642270e-87
5.919749999999990564e+01 2.134641842062988842e-87
5.941124999999991019e+01 3.226886493183847820e-87
5.962499999999991473e+01 4.074878288500873053e-87
5.983874999999991928e+01 4.331365043104691016e-87
6.005249999999992383e+01 3.616591597936133378e-87
6.026624999999992838e+01 1.598413309202958889e-87
6.047999999999990450e+01 -1.897598028884164730e-87
6.069374999999990905e+01 -6.760496342051914631e-87
6.090749999999991360e+01 -1.247218681174804547e-86
6.112124999999991815e+01 -1.802570538035086575e-86
6.133499999999992269e+01 -2.192532261984568656e-86
6.154874999999992724e+01 -2.231114220672301280e-86
6.176249999999993179e+01 -1.724136462552834459e-86
6.197624999999990791e+01 -5.142525279207789899e-87
6.218999999999991246e+01 1.459929979133041538e-86
6.240374999999991701e+01 4.098308272799422218e-86
6.261749999999992156e+01 7.080597732414578478e-86
6.283124999999992610e+01 9.832899371617371695e-86
6.304499999999993065e+01 1.154103116003697142e-85
6.325874999999990678e+01 1.123140795995114928e-85
6.347249999999991132e+01 7.933911134129619666e-86
6.368624999999991587e+01 9.279483591440612810e-87
6.389999999999992042e+01 -9.947425777132685155e-86
6.411374999999992497e+01 -2.396438334193187223e-85
6.432749999999992951e+01 -3.923110483193327411e-85
6.454124999999990564e+01 -5.256716492880442317e-85
6.475499999999991019e+01 -5.963788004159577262e-85
6.496874999999991473e+01 -5.544643179262752995e-85
6.518249999999991928e+01 -3.524344984441793172e-85
6.539624999999992383e+01 4.160203516237028361e-86
6.560999999999992838e+01 6.279962046753984676e-85
6.582374999999990450e+01 1.359353310009728518e-84
6.603749999999990905e+01 2.127960966295888714e-84
6.625124999999991360e+01 2.761822509764798250e-84
6.646499999999991815e+01 3.034645555053336146e-84
6.667874999999992269e+01 2.694374197614549686e-84
6.689249999999992724e+01 1.512570218132010312e-84
6.710624999999990337e+01 -6.470544480877913983e-85
6.731999999999990791e+01 -3.748245621302069338e-84
6.753374999999991246e+01 -7.503844055426047547e-84
6.774749999999991701e+01 -1.131981264446708018e-83
6.796124999999992156e+01 -1.428670082094378079e-83
6.817499999999992610e+01 -1.524444878940893601e-83
6.838874999999990223e+01 -1.294134140013440698e-83
6.860249999999990678e+01 -6.295176980347336421e-84
6.881624999999991132e+01 5.256345239348525185e-84
6.902999999999991587e+01 2.135734655874220251e-83
6.924374999999992042e+01 4.036117940403689140e-83
6.945749999999992497e+01 5.908732458010747572e-83
6.967124999999990109e+01 7.283136520360201951e-83
6.988499999999990564e+01 7.575103522857426387e-83
7.009874999999991019e+01 6.172049747960476546e-83
7.031249999999991473e+01 2.567659221721759326e-83
7.052624999999991928e+01 -3.462693799642688546e-83
7.073999999999992383e+01 -1.166813460528442256e-82
7.095374999999989996e+01 -2.114792872990351939e-82
7.116749999999990450e+01 -3.024821465912456446e-82
7.138124999999990905e+01 -3.658952046309088046e-82
7.159499999999991360e+01 -3.728232690564760580e-82
7.180874999999991815e+01 -2.937054994187581852e-82
7.202249999999992269e+01 -1.050743394425374726e-82
7.223624999999989882e+01 2.018518653084028525e-82
7.244999999999990337e+01 6.119086274721495093e-82
7.266374999999990791e+01 1.077944936908940620e-81
7.287749999999991246e+01 1.516506890095414139e-81
7.309124999999991701e+01 1.810064354270155009e-81
7.330499999999992156e+01 1.818394262134739685e-81
7.351874999999989768e+01 1.400810424316609467e-81
7.373249999999990223e+01 4.491670795515540232e-82
7.394624999999990678e+01 -1.071016677147551106e-81
7.415999999999991132e+01 -3.077136759677924606e-81
7.437374999999991587e+01 -5.332907479272278323e-81
7.458749999999992042e+01 -7.430404780822017172e-81
7.480124999999992497e+01 -8.803753223396756663e-81
7.501499999999990109e+01 -8.786157390763570376e-81
7.522874999999990564e+01 -6.717333280645591585e-81
7.544249999999991019e+01 -2.099946433326583444e-81
7.565624999999991473e+01 5.208374783955906899e-81
7.586999999999991928e+01 1.479536167616516374e-80
7.608374999999992383e+01 2.552935402403877254e-80
7.629749999999989996e+01 3.548363780563014147e-80
7.651124999999990450e+01 4.200840912315777258e-80
7.672499999999990905e+01 4.200180068160457082e-80
7.693874999999991360e+01 3.240926737167299469e-80
7.715249999999991815e+01 1.094174135065751842e-80
7.736624999999992269e+01 -2.305129733974329477e-80
7.757999999999989882e+01 -6.768183432345856181e-80
7.779374999999990337e+01 -1.177882494188725174e-79
7.800749999999990791e+01 -1.646058657811202972e-79
7.822124999999991246e+01 -1.961000353798777567e-79
7.843499999999991701e+01 -1.981841241753101492e-79
7.864874999999992156e+01 -1.569448865421631024e-79
7.886249999999989768e+01 -6.182632744236998597e-80
7.907624999999990223e+01 9.051257742022715548e-80
7.928999999999990678e+01 2.922262942911431535e-79
7.950374999999991132e+01 5.210280497525005547e-79
7.971749999999991587e+01 7.386868552587456708e-79
7.993124999999992042e+01 8.923743819648308354e-79
8.014499999999989654e+01 9.198082485830460586e-79
8.035874999999990109e+01 7.587135338215124405e-79
8.057249999999990564e+01 3.604037261047286530e-79
8.078624999999991019e+01 -2.937013899548148918e-79
8.099999999999991473e+01 -1.174946245542968025e-78
8.121374999999991928e+01 -2.193143707529415055e-78
8.142749999999989541e+01 -3.189403034134082102e-78
8.164124999999989996e+01 -3.940644257201123431e-78
8.185499999999990450e+01 -4.179767270727708088e-78
8.206874999999990905e+01 -3.633753574633263146e-78
8.228249999999991360e+01 -2.079105588359413066e-78
8.249624999999991815e+01 5.898964716909357643e-79
8.270999999999989427e+01 4.289209744392553707e-78
8.292374999999989882e+01 8.682913222678970939e-78
8.313749999999990337e+01 1.314803073631903073e-77
8.335124999999990791e+01 1.678465677212542640e-77
8.356499999999991246e+01 1.848773566582305814e-77
8.377874999999991701e+01 1.709063792576563062e-77
8.399249999999989313e+01 1.157992195280998932e-77
8.420624999999989768e+01 1.365812784553005516e-78
8.441999999999990223e+01 -1.342456569652824283e-77
8.463374999999990678e+01 -3.168174410071536976e-77
8.484749999999991132e+01 -5.114090198350480610e-77
8.506124999999991587e+01 -6.837245425069698474e-77
8.527499999999989200e+01 -7.900208291348532189e-77
8.548874999999989654e+01 -7.820563380797009541e-77
8.570249999999990109e+01 -6.148717977298639527e-77
8.591624999999990564e+01 -2.569594605478812267e-77
8.612999999999991019e+01 2.982562491572110970e-77
8.634374999999991473e+01 1.021361735122336469e-76
8.655749999999989086e+01 1.838618534870283352e-76
8.677124999999989541e+01 2.628972157728920072e-76
8.698499999999989996e+01 3.228971814780333980e-76
8.719874999999990450e+01 3.447605718487634656e-76
8.741249999999990905e+01 3.091921438047610505e-76
8.762624999999991360e+01 2.002607302564460254e-76
8.783999999999991815e+01 9.658202733925919170e-78
8.805374999999989427e+01 -2.588682504375260464e-76
8.826749999999989882e+01 -5.856542557184899714e-76
8.848124999999990337e+01 -9.327271898544169270e-76
8.869499999999990791e+01 -1.243836950479868622e-75
8.890874999999991246e+01 -1.447761981146197371e-75
8.912249999999991701e+01 -1.465468513455210902e-75
8.933624999999989313e+01 -1.221239034634036593e-75
8.954999999999989768e+01 -6.572566783352140394e-76
8.976374999999990223e+01 2.496135675088745879e-76
8.997749999999990678e+01 1.470885843404859753e-75
9.019124999999991132e+01 2.912100617530242805e-75
9.040499999999991587e+01 4.404306295817489688e-75
9.061874999999989200e+01 5.704797119655094760e-75
9.083249999999989654e+01 6.510254529995797404e-75
9.104624999999990109e+01 6.484625478130649865e-75
9.125999999999990564e+01 5.302668968595951302e-75
9.147374999999991019e+01 2.708114169731502813e-75
9.168749999999991473e+01 -1.417136760030480911e-75
9.190124999999989086e+01 -6.979228609047018194e-75
9.211499999999989541e+01 -1.360354528026524524e-74
9.232874999999989996e+01 -2.058338766485039595e-74
9.254249999999990450e+01 -2.686108936918572878e-74
9.275624999999990905e+01 -3.105790095610321428e-74
9.296999999999991360e+01 -3.156861708261640285e-74
9.318374999999988972e+01 -2.673402601662834465e-74
9.339749999999989427e+01 -1.509795024466618144e-74
9.361124999999989882e+01 4.254904071311491550e-75
9.382499999999990337e+01 3.129941443108589132e-74
9.403874999999990791e+01 6.464804667867706617e-74
9.425249999999991246e+01 1.011694221935908136e-73
9.446624999999988859e+01 1.357355026607800092e-73
9.467999999999989313e+01 1.612073980128248380e-73
9.489374999999989768e+01 1.687823809298360443e-73
9.510749999999990223e+01 1.488198363900599365e-73
9.532124999999990678e+01 9.223256316970739005e-74
9.553499999999991132e+01 -7.536375715909388133e-75
9.574874999999988745e+01 -1.520377383061311019e-73
9.596249999999989200e+01 -3.350744065528872334e-73
9.617624999999989654e+01 -5.401045267790106927e-73
9.638999999999990109e+01 -7.383861571309843063e-73
9.660374999999990564e+01 -8.886189444397832270e-73
9.681749999999991019e+01 -9.389205147186750440e-73
9.703124999999988631e+01 -8.319216005958336436e-73
9.724499999999989086e+01 -5.135140202658129122e-73
9.745874999999989541e+01 5.470913983342865121e-74
9.767249999999989996e+01 8.800408650728719851e-73
9.788624999999990450e+01 1.921988824209278759e-72
9.809999999999990905e+01 3.077191051100089182e-72
9.831374999999988518e+01 4.169857224056186488e-72
9.852749999999988972e+01 4.952468564409406635e-72
9.874124999999989427e+01 5.121641977675341378e-72
9.895499999999989882e+01 4.353266300128471416e-72
9.916874999999990337e+01 2.358942546329625658e-72
9.938249999999990791e+01 -1.037772655710079527e-72
9.959624999999988404e+01 -5.811756675572610379e-72
9.980999999999988859e+01 -1.164572968643456574e-71
1.000237499999998931e+02 -1.785723449012768195e-71
1.002374999999998977e+02 -2.336688963605054391e-71
1.004512499999999022e+02 -2.673415393740600294e-71
1.006649999999999068e+02 -2.628496974025218583e-71
1.008787499999998829e+02 -2.034769214358684733e-71
1.010924999999998875e+02 -7.598507751831778524e-72
1.013062499999998920e+02 1.250502597529447708e-71
1.015199999999998965e+02 3.925222115724676113e-71
1.017337499999999011e+02 7.025031986327455915e-71
1.019474999999999056e+02 1.011477036732406972e-70
1.021612499999999102e+02 1.256366680484018641e-70
1.023749999999998863e+02 1.358625413205891578e-70
1.025887499999998909e+02 1.233381921380572863e-70
1.028024999999998954e+02 8.040176601817212956e-71
1.030162499999999000e+02 2.158739862129396344e-72
1.032299999999999045e+02 -1.112783460290490433e-70
1.034437499999999091e+02 -2.525846156984061900e-70
1.036574999999998852e+02 -4.055245898375856945e-70
1.038712499999998897e+02 -5.443369022830126534e-70
1.040849999999998943e+02 -6.348063604668665534e-70
1.042987499999998988e+02 -6.375421464343514096e-70
1.045124999999999034e+02 -5.137496654137465029e-70
1.047262499999999079e+02 -2.333916812137531065e-70
1.049399999999998840e+02 2.149055261261066717e-70
1.051537499999998886e+02 8.134841141991375372e-70
1.053674999999998931e+02 1.506754818819030451e-69
1.055812499999998977e+02 2.196218964319709215e-69
1.057949999999999022e+02 2.742104812708459856e-69
1.060087499999999068e+02 2.974094301457540123e-69
1.062224999999998829e+02 2.712797286861624790e-69
1.064362499999998875e+02 1.802125240810270793e-69
1.066499999999998920e+02 1.505488601233723496e-70
1.068637499999998965e+02 -2.223434416087326586e-69
1.070774999999999011e+02 -5.149102256239359153e-69
1.072912499999999056e+02 -8.274493262706370821e-69
1.075049999999998818e+02 -1.106190380385792822e-68
1.077187499999998863e+02 -1.281890272409456433e-68
1.079324999999998909e+02 -1.277317542599496723e-68
1.081462499999998954e+02 -1.019402250713500629e-68
1.083599999999999000e+02 -4.555049556167133445e-69
1.085737499999999045e+02 4.277947947826976778e-69
1.087874999999998806e+02 1.586143606579574178e-68
1.090012499999998852e+02 2.902905696128631782e-68
1.092149999999998897e+02 4.183226358888305399e-68
1.094287499999998943e+02 5.161277447392003659e-68
1.096424999999998988e+02 5.524484430719465735e-68
1.098562499999999034e+02 4.956640243806153562e-68
1.100699999999998795e+02 3.198788942542934354e-68
1.102837499999998840e+02 1.227791709759019355e-69
1.104974999999998886e+02 -4.192130448068765333e-68
1.107112499999998931e+02 -9.393585911228937607e-68
1.109249999999998977e+02 -1.481859904289887492e-67
1.111387499999999022e+02 -1.950246314375772437e-67
1.113524999999998784e+02 -2.225028905866343492e-67
1.115662499999998829e+02 -2.178115823412121647e-67
1.117799999999998875e+02 -1.694438733168900426e-67
1.119937499999998920e+02 -6.993008467761990753e-68
1.122074999999998965e+02 8.117323813035996068e-68
1.124212499999999011e+02 2.745277940089531593e-67
1.126349999999998772e+02 4.891170267160897720e-67
1.128487499999998818e+02 6.919004196464909107e-67
1.130624999999998863e+02 8.396656139507123652e-67
1.132762499999998909e+02 8.835373774797861501e-67
1.134899999999998954e+02 7.762553106575778462e-67
1.137037499999999000e+02 4.818355463876318939e-67
1.139174999999998761e+02 -1.337185878421958833e-68
1.141312499999998806e+02 -6.898496419579475807e-67
1.143449999999998852e+02 -1.486470362722117656e-66
1.145587499999998897e+02 -2.296934170005885359e-66
1.147724999999998943e+02 -2.973536920590549781e-66
1.149862499999998988e+02 -3.340189712296344347e-66
1.151999999999998749e+02 -3.215523202247566684e-66
1.154137499999998795e+02 -2.445275199544137092e-66
1.156274999999998840e+02 -9.411002520473969120e-67
1.158412499999998886e+02 1.279297220550202830e-66
1.160549999999998931e+02 4.057851011094065373e-66
1.162687499999998977e+02 7.076183153252870865e-66
1.164824999999999022e+02 9.858808921578033458e-66
1.166962499999998784e+02 1.180695509709955656e-65
1.169099999999998829e+02 1.226723726099446265e-65
1.171237499999998875e+02 1.063432145343721241e-65
1.173374999999998920e+02 6.479992011557957025e-66
1.175512499999998965e+02 -3.065020793857624619e-67
1.177649999999999011e+02 -9.389198732508374886e-66
1.179787499999998772e+02 -1.989512297768108268e-65
1.181924999999998818e+02 -3.039285892037889702e-65
1.184062499999998863e+02 -3.896706468681587653e-65
1.186199999999998909e+02 -4.340713413636050255e-65
1.188337499999998954e+02 -4.151301385159158857e-65
1.190474999999999000e+02 -3.150044151493427552e-65
1.192612499999998761e+02 -1.246366219049756093e-65
1.194749999999998806e+02 1.517059327636094422e-65
1.196887499999998852e+02 4.928390836737981118e-65
1.199024999999998897e+02 8.589806045497710074e-65
1.201162499999998943e+02 1.192900249450069685e-64
1.203299999999998988e+02 1.424595753854607535e-64
1.205437499999998749e+02 1.479764826416911199e-64
1.207574999999998795e+02 1.291735913384763912e-64
1.209712499999998840e+02 8.157861128370367042e-65
1.211849999999998886e+02 4.400913460392788783e-66
1.213987499999998931e+02 -9.817691355346734903e-65
1.216124999999998977e+02 -2.161942567203774087e-64
1.218262499999998738e+02 -3.338867453816283928e-64
1.220399999999998784e+02 -4.306800123898329737e-64
1.222537499999998829e+02 -4.833325486939088622e-64
1.224674999999998875e+02 -4.691903174570125279e-64
1.226812499999998920e+02 -3.703066761831796296e-64
1.228949999999998965e+02 -1.779555474245039297e-64
1.231087499999998727e+02 1.031402291866834912e-64
1.233224999999998772e+02 4.516870621315139258e-64
1.235362499999998818e+02 8.286647967642389900e-64
1.237499999999998863e+02 1.178892136226325744e-63
1.239637499999998909e+02 1.435801664704108793e-63
1.241774999999998954e+02 1.529486993189131779e-63
1.243912499999998715e+02 1.397533033065046785e-63
1.246049999999998761e+02 9.975282425342985232e-64
1.248187499999998806e+02 3.195779900845429443e-64
1.250324999999998852e+02 -6.032976841678533854e-64
1.252462499999998897e+02 -1.689176829864746687e-63
1.254599999999998943e+02 -2.807778457551808754e-63
1.256737499999998704e+02 -3.789070559758449393e-63
1.258874999999998749e+02 -4.440489349750593382e-63
1.261012499999998795e+02 -4.572001496029561437e-63