2.024999999999579359e-01 -1.963310820886103411e-103
4.162499999999482725e-01 -4.884821174061081087e-103
6.299999999999528200e-01 -7.795494200779615161e-103
8.437499999999573674e-01 -9.337355024217446195e-103
1.057499999999947704e+00 -7.780896258765956220e-103
1.271249999999952252e+00 -1.591930215341006743e-103
1.484999999999956799e+00 9.656974577567412769e-103
1.698749999999947136e+00 2.422963633192129079e-102
1.912499999999951683e+00 3.746579481029301979e-102
2.126249999999956231e+00 4.196705732982725725e-102
2.339999999999946567e+00 2.940855612825626339e-102
2.553749999999951115e+00 -5.666873901739166879e-103
2.767499999999955662e+00 -6.052007009915048427e-102
2.981249999999945999e+00 -1.190655417073984430e-101
3.194999999999950546e+00 -1.500373391912517387e-101
3.408749999999955094e+00 -1.125267513910237150e-101
3.622499999999945430e+00 2.762740931324324480e-102
3.836249999999949978e+00 2.702398261534636100e-101
4.049999999999954525e+00 5.478813810392018874e-101
4.263749999999944862e+00 7.023692964941555971e-101
4.477499999999949409e+00 4.939690120781560747e-101
4.691249999999953957e+00 -3.299278618769394479e-101
4.904999999999944293e+00 -1.888564663014901996e-100
5.118749999999948841e+00 -3.953416745800841640e-100
5.332499999999953388e+00 -5.723830679411684131e-100
5.546249999999943725e+00 -5.714121932371869568e-100
5.759999999999948272e+00 -1.929701649621569762e-100
5.973749999999952820e+00 7.479015434711867682e-100
6.187499999999943157e+00 2.297919057603767468e-99
6.401249999999947704e+00 4.195068095693845691e-99
6.614999999999952252e+00 5.700193263655649831e-99
6.828749999999942588e+00 5.525930609267791894e-99
7.042499999999947136e+00 1.997732544394035708e-99
7.256249999999951683e+00 -6.413353626586940840e-99
7.469999999999942020e+00 -2.011124799191267095e-98
7.683749999999946567e+00 -3.703941975831084535e-98
7.897499999999951115e+00 -5.135404562048974813e-98
8.111249999999941451e+00 -5.281078500709234524e-98
8.324999999999945999e+00 -2.786316841029371669e-98
8.538749999999950546e+00 3.647790894547835087e-98
8.752499999999940883e+00 1.454113633740330547e-97
8.966249999999945430e+00 2.862773963842072711e-97
9.179999999999949978e+00 4.181203490408552830e-97
9.393749999999940314e+00 4.657962419786559100e-97
9.607499999999944862e+00 3.257467389213587757e-97
9.821249999999949409e+00 -1.087754652279116491e-97
1.003499999999993975e+01 -8.978298154925654960e-97
1.024874999999994429e+01 -1.982504205787225513e-96
1.046249999999994884e+01 -3.105427581469785498e-96
1.067624999999993918e+01 -3.756303430799737803e-96
1.088999999999994373e+01 -3.191096306379239880e-96
1.110374999999994827e+01 -5.808650085190221771e-97
1.131749999999993861e+01 4.666821054009824190e-96
1.153124999999994316e+01 1.241582572028720536e-95
1.174499999999994770e+01 2.122344540805747696e-95
1.195874999999993804e+01 2.787507758249977464e-95
1.217249999999994259e+01 2.734818313471561157e-95
1.238624999999994714e+01 1.359239064911256488e-95
1.259999999999993747e+01 -1.853821673097421631e-95
1.281374999999994202e+01 -7.011478893539749817e-95
1.302749999999994657e+01 -1.341405304395155365e-94
1.324124999999995111e+01 -1.918800202557715386e-94
1.345499999999994145e+01 -2.114708424207449703e-94
1.366874999999994600e+01 -1.513726707352741849e-94
1.388249999999995055e+01 2.886788508673349820e-95
1.409624999999994088e+01 3.493262369576346053e-94
1.430999999999994543e+01 7.835340577093152791e-94
1.452374999999994998e+01 1.231557359803133215e-93
1.473749999999994031e+01 1.503806775683982403e-93
1.495124999999994486e+01 1.331665394188964963e-93
1.516499999999994941e+01 4.221631456095950745e-94
1.537874999999993975e+01 -1.431678134553194526e-93
1.559249999999994429e+01 -4.188494841392541341e-93
1.580624999999994884e+01 -7.373861906556096942e-93
1.601999999999993918e+01 -9.936561207224971136e-93
1.623374999999994373e+01 -1.024202148983978501e-92
1.644749999999994827e+01 -6.315949786693449099e-93
1.666124999999993861e+01 3.567969230978161951e-93
1.687499999999994316e+01 1.993757338784067541e-92
1.708874999999994770e+01 4.093272305505551646e-92
1.730249999999993804e+01 6.120165739705055427e-92
1.751624999999994259e+01 7.142666810402579401e-92
1.772999999999994714e+01 5.917845882243711866e-92
1.794374999999993747e+01 1.177640598978945221e-92
1.815749999999994202e+01 -7.849643475434403791e-92
1.837124999999994657e+01 -2.072055473221902853e-91
1.858499999999993690e+01 -3.501188038093175812e-91
1.879874999999994145e+01 -4.579792102594113976e-91
1.901249999999994600e+01 -4.577687562996391631e-91
1.922624999999993634e+01 -2.649330089614232775e-91
1.943999999999994088e+01 1.901351307335183408e-91
1.965374999999994543e+01 9.214910321756487003e-91
1.986749999999993577e+01 1.839032183691863326e-90
2.008124999999994031e+01 2.705963764402448687e-90
2.029499999999994486e+01 3.124528608341013207e-90
2.050874999999993520e+01 2.577255289553230430e-90
2.072249999999993975e+01 5.486260932611890566e-91
2.093624999999994429e+01 -3.262235198124496302e-90
2.114999999999993463e+01 -8.656507949445676944e-90
2.136374999999993918e+01 -1.464022651018651555e-89
2.157749999999994373e+01 -1.923057526345813437e-89
2.179124999999993406e+01 -1.951778920697004429e-89
2.200499999999993861e+01 -1.214683029234484250e-89
2.221874999999994316e+01 5.665124085482999968e-90
2.243249999999993349e+01 3.458906380125837631e-89
2.264624999999993804e+01 7.135462536349615289e-89
2.285999999999994259e+01 1.071473237295051008e-88
2.307374999999993292e+01 1.270339922631979925e-88
2.328749999999993747e+01 1.113906050711910629e-88
2.350124999999994202e+01 4.021901517720683291e-89
2.371499999999993236e+01 -9.925994599268750953e-89
2.392874999999993690e+01 -3.023567102227272820e-88
2.414249999999994145e+01 -5.361075535807158375e-88
2.435624999999993179e+01 -7.317273387767534709e-88
2.456999999999993634e+01 -7.855758682624829231e-88
2.478374999999994088e+01 -5.743147195277123346e-88
2.499749999999993122e+01 1.154408116705332744e-89
2.521124999999993577e+01 1.015623612568606644e-87
2.542499999999994031e+01 2.352166368765613075e-87
2.563874999999993065e+01 3.747254379565076525e-87
2.585249999999993520e+01 4.710512440501325242e-87
2.606624999999993975e+01 4.569332518232818085e-87
2.627999999999994429e+01 2.596128059081489073e-87
2.649374999999993463e+01 -1.755001119775638885e-87
2.670749999999993918e+01 -8.515811882980767275e-87
2.692124999999994373e+01 -1.683467410132972557e-86
2.713499999999993406e+01 -2.468373224700214721e-86
2.734874999999993861e+01 -2.880432683912185445e-86
2.756249999999994316e+01 -2.507377811458814563e-86
2.777624999999993349e+01 -9.444110980977001576e-87
2.798999999999993804e+01 2.050699990449302417e-86
2.820374999999994259e+01 6.357206711585292017e-86
2.841749999999993292e+01 1.128894654694504298e-85
2.863124999999993747e+01 1.546296737000343984e-85
2.884499999999994202e+01 1.683504887261181436e-85
2.905874999999993236e+01 1.300076705765483524e-85
2.927249999999993690e+01 1.829406787297828857e-86
2.948624999999994145e+01 -1.757849050315019799e-85
2.969999999999993179e+01 -4.374267042923178155e-85
2.991374999999993634e+01 -7.175300922117459689e-85
3.012749999999994088e+01 -9.276126848374620570e-85
3.034124999999993122e+01 -9.455371253413146228e-85
3.055499999999993577e+01 -6.370729282124943535e-85
3.076874999999994031e+01 1.040773931468180463e-85
3.098249999999993065e+01 1.300047648271951464e-84
3.119624999999993520e+01 2.825866821280651034e-84
3.140999999999993975e+01 4.357811273675778108e-84
3.162374999999993008e+01 5.358634714072057667e-84
3.183749999999993463e+01 5.128637505225562645e-84
3.205124999999993918e+01 2.946849287657375976e-84
3.226499999999992951e+01 -1.689609600555794597e-84
3.247874999999993406e+01 -8.749233534086612475e-84
3.269249999999993861e+01 -1.733454379241009478e-83
3.290624999999992895e+01 -2.544116631784127891e-83
3.311999999999993349e+01 -2.994878317098351348e-83
3.333374999999993804e+01 -2.699342387965999787e-83
3.354749999999992838e+01 -1.283215960668575735e-83
3.376124999999993292e+01 1.478948065895055216e-83
3.397499999999993747e+01 5.492395042543881489e-83
3.418874999999992781e+01 1.017349705615960802e-82
3.440249999999993236e+01 1.434326894181767951e-82
3.461624999999993690e+01 1.625807665299621577e-82
3.482999999999992724e+01 1.385193681280487582e-82
3.504374999999993179e+01 5.238464243703778713e-83
3.525749999999993634e+01 -1.053825750508400934e-82
3.547124999999992667e+01 -3.260556463631460866e-82
3.568499999999993122e+01 -5.743034111458577736e-82
3.589874999999993577e+01 -7.837430205978292140e-82
3.611249999999992610e+01 -8.602156229184953877e-82
3.632624999999993065e+01 -6.963705249506286739e-82
3.653999999999993520e+01 -1.995155163081176073e-82
3.675374999999992554e+01 6.685674623720105975e-82
3.696749999999993008e+01 1.845913414018243433e-81
3.718124999999993463e+01 3.130436027725677604e-81
3.739499999999992497e+01 4.162462115264507994e-81
3.760874999999992951e+01 4.448926265340868488e-81
3.782249999999993406e+01 3.446019540086621294e-81
3.803624999999993861e+01 7.077382793631913046e-82
3.824999999999994316e+01 -3.909514331330906620e-81
3.846374999999991928e+01 -1.002031328582236103e-80
3.867749999999992383e+01 -1.652279229159736262e-80
3.889124999999992838e+01 -2.153460879767458778e-80
3.910499999999993292e+01 -2.254533839883582372e-80
3.931874999999993747e+01 -1.686202981443387026e-80
3.953249999999994202e+01 -2.373976575590430508e-81
3.974624999999991815e+01 2.142556604738354332e-80
3.995999999999992269e+01 5.234193523861218385e-80
4.017374999999992724e+01 8.461572087730917220e-80
4.038749999999993179e+01 1.087057029730109154e-79
4.060124999999993634e+01 1.121584427254339993e-79
4.081499999999994088e+01 8.190793602737752005e-80
4.102874999999991701e+01 8.086953026288751524e-81
4.124249999999992156e+01 -1.110040892292653223e-79
4.145624999999992610e+01 -2.636934122873034751e-79
4.166999999999993065e+01 -4.210167818078160614e-79
4.188374999999993520e+01 -5.360433359708014442e-79
4.209749999999993975e+01 -5.484876325127795924e-79
4.231124999999991587e+01 -3.961201643317133425e-79
4.252499999999992042e+01 -3.319235489055910010e-80
4.273874999999992497e+01 5.459902140091807940e-79
4.295249999999992951e+01 1.282859860856009383e-78
4.316624999999993406e+01 2.036950814247763837e-78
4.337999999999993861e+01 2.583964138912434683e-78
4.359374999999991473e+01 2.638793682218948999e-78
4.380749999999991928e+01 1.910097423678432000e-78
4.402124999999992383e+01 1.868235609449546285e-79
4.423499999999992838e+01 -2.552554172695303967e-78
4.444874999999993292e+01 -6.029365061938727296e-78
4.466249999999993747e+01 -9.585873993578047495e-78
4.487624999999991360e+01 -1.217964928900111119e-77
4.508999999999991815e+01 -1.249247705701507327e-77
4.530374999999992269e+01 -9.182306600193962076e-78
4.551749999999992724e+01 -1.278341844538187311e-78
4.573124999999993179e+01 1.132410661611139698e-77
4.594499999999993634e+01 2.736578616824020118e-77
4.615874999999991246e+01 4.387174602858560971e-77
4.637249999999991701e+01 5.612947927622747783e-77
4.658624999999992156e+01 5.817831824230020350e-77
4.679999999999992610e+01 4.393305058637005307e-77
4.701374999999993065e+01 8.938847962600605528e-78
4.722749999999993520e+01 -4.743602587540943023e-77
4.744124999999993975e+01 -1.197950668021139269e-76
4.765499999999991587e+01 -1.951462545855796562e-76
4.786874999999992042e+01 -2.527705051469759710e-76
4.808249999999992497e+01 -2.663101842038370921e-76
4.829624999999992951e+01 -2.086090201009344792e-76
4.850999999999993406e+01 -5.929501996209642708e-77
4.872374999999993861e+01 1.857148824228645856e-76
4.893749999999991473e+01 5.045946705698145232e-76
4.915124999999991928e+01 8.426342048541696117e-76
4.936499999999992383e+01 1.111298367589261054e-75
4.957874999999992838e+01 1.196664182985319294e-75
4.979249999999993292e+01 9.795363024289184109e-76
5.000624999999993747e+01 3.673050228648976401e-76
5.021999999999991360e+01 -6.657622724132730453e-76
5.043374999999991815e+01 -2.037202295752306918e-75
5.064749999999992269e+01 -3.525409510465198858e-75
5.086124999999992724e+01 -4.763149381716765912e-75
5.107499999999993179e+01 -5.269582477576976275e-75
5.128874999999993634e+01 -4.530765874176715991e-75
5.150249999999991246e+01 -2.129654314308684190e-75
5.171624999999991701e+01 2.086993061454215013e-75
5.192999999999992156e+01 7.834073276535115789e-75
5.214374999999992610e+01 1.425172127953758119e-74
5.235749999999993065e+01 1.986427831659103663e-74
5.257124999999993520e+01 2.269280160516223971e-74
5.278499999999991132e+01 2.056418361692218965e-74
5.299874999999991587e+01 1.162548595613704993e-74
5.321249999999992042e+01 -4.981315546772605089e-75
5.342624999999992497e+01 -2.839537992748342335e-74
5.363999999999992951e+01 -5.544204692417138867e-74
5.385374999999993406e+01 -8.039427172793072884e-74
5.406749999999991019e+01 -9.532713997961106507e-74
5.428124999999991473e+01 -9.125022494679206264e-74
5.449499999999991928e+01 -6.007505996645802603e-74
5.470874999999992383e+01 2.728166426199425301e-75
5.492249999999992838e+01 9.518874214460574563e-74
5.513624999999993292e+01 2.062802236502142048e-73
5.534999999999990905e+01 3.146322272913232327e-73
5.556374999999991360e+01 3.894544371838204970e-73
5.577749999999991815e+01 3.944555018498351406e-73
5.599124999999992269e+01 2.950893413649890615e-73
5.620499999999992724e+01 6.871409594673520237e-74
5.641874999999993179e+01 -2.837289363277260423e-73
5.663249999999990791e+01 -7.269586200249970687e-73
5.684624999999991246e+01 -1.184833295266802379e-72
5.705999999999991701e+01 -1.541758894735360906e-72
5.727374999999992156e+01 -1.655282026894813460e-72
5.748749999999992610e+01 -1.381621842393984683e-72
5.770124999999993065e+01 -6.132489050107090018e-73
5.791499999999990678e+01 6.759780052486306774e-73
5.812874999999991132e+01 2.386626915661441506e-72
5.834249999999991587e+01 4.262540162108711989e-72
5.855624999999992042e+01 5.886777275689123054e-72
5.876999999999992497e+01 6.717888615537726417e-72
5.898374999999992951e+01 6.175098287837973064e-72
5.919749999999990564e+01 3.772024533888363266e-72
5.941124999999991019e+01 -7.142266686500411208e-73
5.962499999999991473e+01 -7.066749558160607295e-72
5.983874999999991928e+01 -1.448772877562217960e-71
6.005249999999992383e+01 -2.154449970524908233e-71
6.026624999999992838e+01 -2.625508050779913834e-71
6.047999999999990450e+01 -2.635254119180831244e-71
6.069374999999990905e+01 -1.973897419367745778e-71
6.090749999999991360e+01 -5.096143570932222516e-72
6.112124999999991815e+01 1.743422786755350660e-71
6.133499999999992269e+01 4.564285548143993721e-71
6.154874999999992724e+01 7.490327173553571864e-71
6.176249999999993179e+01 9.828011919123201387e-71
6.197624999999990791e+01 1.072659291410052658e-70
6.218999999999991246e+01 9.323240358321726676e-71
6.240374999999991701e+01 4.954035611206112199e-71
6.261749999999992156e+01 -2.593546223357403316e-71
6.283124999999992610e+01 -1.283171129212383255e-70
6.304499999999993065e+01 -2.439024591524791217e-70
6.325874999999990678e+01 -3.497477043384372707e-70
6.347249999999991132e+01 -4.153536251438040925e-70
6.368624999999991587e+01 -4.069341397397629764e-70
6.389999999999992042e+01 -2.943149455661611329e-70
6.411374999999992497e+01 -5.988796231222375666e-71
6.432749999999992951e+01 2.916937810849142808e-70
6.454124999999990564e+01 7.251263311841659206e-70
6.475499999999991019e+01 1.169954466930749239e-69
6.496874999999991473e+01 1.522685037269652857e-69
6.518249999999991928e+01 1.657782010640855728e-69
6.539624999999992383e+01 1.448624114811159196e-69
6.560999999999992838e+01 7.975714170236477411e-70
6.582374999999990450e+01 -3.282412082503968293e-70
6.603749999999990905e+01 -1.861532698463356798e-69
6.625124999999991360e+01 -3.608526066679845082e-69
6.646499999999991815e+01 -5.241649242306015876e-69
6.667874999999992269e+01 -6.320972371846954339e-69
6.689249999999992724e+01 -6.351309718223118980e-69
6.710624999999990337e+01 -4.876400261288175659e-69
6.731999999999990791e+01 -1.603468771864468855e-69
6.753374999999991246e+01 3.458419948113359751e-69
6.774749999999991701e+01 9.872903387262209113e-69
6.796124999999992156e+01 1.669851904609148537e-68
6.817499999999992610e+01 2.249665876597152312e-68
6.838874999999990223e+01 2.545928816466095064e-68
6.860249999999990678e+01 2.367679722710087158e-68
6.881624999999991132e+01 1.554235520708100297e-68
6.902999999999991587e+01 2.560294387841418694e-70
6.924374999999992042e+01 -2.164649435886744870e-68
6.945749999999992497e+01 -4.785289056063740350e-68
6.967124999999990109e+01 -7.405999612695111292e-68
6.988499999999990564e+01 -9.413164195104907456e-68
7.009874999999991019e+01 -1.007489908596083495e-67
7.031249999999991473e+01 -8.661106623679728356e-68
7.052624999999991928e+01 -4.614065235869969004e-68
7.073999999999992383e+01 2.248475295675624871e-68
7.095374999999989996e+01 1.153086783491482311e-67
7.116749999999990450e+01 2.210492564857531207e-67
7.138124999999990905e+01 3.205920576932003319e-67
7.159499999999991360e+01 3.880830441163524221e-67
7.180874999999991815e+01 3.940523857048985706e-67
7.202249999999992269e+01 3.107145629301840380e-67
7.223624999999989882e+01 1.191487320864766014e-67
7.244999999999990337e+01 -1.824995693137257472e-67
7.266374999999990791e+01 -5.712608331972178401e-67
7.287749999999991246e+01 -9.940219688427696883e-67
7.309124999999991701e+01 -1.366932123717671218e-66
7.330499999999992156e+01 -1.581709741040898015e-66
7.351874999999989768e+01 -1.520359326965256824e-66
7.373249999999990223e+01 -1.078497006966445615e-66
7.394624999999990678e+01 -1.955587146750587660e-67
7.415999999999991132e+01 1.112193814981938604e-66
7.437374999999991587e+01 2.722381552400126280e-66
7.458749999999992042e+01 4.389398520193840496e-66
7.480124999999992497e+01 5.748766192106757559e-66
7.501499999999990109e+01 6.351217304174692252e-66
7.522874999999990564e+01 5.731364574765133425e-66
7.544249999999991019e+01 3.509767474128318827e-66
7.565624999999991473e+01 -4.811827789862682427e-67
7.586999999999991928e+01 -6.066917216663076823e-66
7.608374999999992383e+01 -1.262468028379647052e-65
7.629749999999989996e+01 -1.903736561057107681e-65
7.651124999999990450e+01 -2.374389090437561472e-65
7.672499999999990905e+01 -2.491578334927117020e-65
7.693874999999991360e+01 -2.077252107569025085e-65
7.715249999999991815e+01 -1.002065575415038858e-65
7.736624999999992269e+01 7.634094795914677204e-66
7.757999999999989882e+01 3.099176450441946264e-65
7.779374999999990337e+01 5.700460537329745771e-65
7.800749999999990791e+01 8.070931258223546906e-65
7.822124999999991246e+01 9.558288372590026098e-65
7.843499999999991701e+01 9.441799956386177658e-65
7.864874999999992156e+01 7.073097824706327250e-65
7.886249999999989768e+01 2.059410226339764768e-65
7.907624999999990223e+01 -5.536281579629780113e-65
7.928999999999990678e+01 -1.501850105390497157e-64
7.950374999999991132e+01 -2.495773803801079029e-64
7.971749999999991587e+01 -3.321980411118848764e-64
7.993124999999992042e+01 -3.717399649743507619e-64
8.014499999999989654e+01 -3.410548823267536769e-64
8.035874999999990109e+01 -2.181936465578125133e-64
8.057249999999990564e+01 6.271388967613783174e-66
8.078624999999991019e+01 3.218453994739879145e-64
8.099999999999991473e+01 6.923528197118621846e-64
8.121374999999991928e+01 1.053864458219674927e-63
8.142749999999989541e+01 1.318319204143087030e-63
8.164124999999989996e+01 1.384322820236039021e-63
8.185499999999990450e+01 1.155509616058229627e-63
8.206874999999990905e+01 5.652148952462712195e-64
8.228249999999991360e+01 -3.958024282601516539e-64
8.249624999999991815e+01 -1.653897548474478046e-63
8.270999999999989427e+01 -3.036266596044033398e-63
8.292374999999989882e+01 -4.271416704333281470e-63
8.313749999999990337e+01 -5.013015667919296016e-63
8.335124999999990791e+01 -4.890894297781234416e-63
8.356499999999991246e+01 -3.588067374600591252e-63
8.377874999999991701e+01 -9.360386361279995096e-64
8.399249999999989313e+01 2.986743534835155169e-63
8.420624999999989768e+01 7.775168890586726526e-63
8.441999999999990223e+01 1.266262957406178608e-62
8.463374999999990678e+01 1.655696327682556506e-62
8.484749999999991132e+01 1.816661454617198764e-62
8.506124999999991587e+01 1.622287398467047707e-62
8.527499999999989200e+01 9.783781018413713150e-63
8.548874999999989654e+01 -1.419511821301594751e-63
8.570249999999990109e+01 -1.665831907573737913e-62
8.591624999999990564e+01 -3.398819062956943380e-62
8.612999999999991019e+01 -5.022883768812260861e-62
8.634374999999991473e+01 -6.122332008051883931e-62
8.655749999999989086e+01 -6.242356035259941767e-62
8.677124999999989541e+01 -4.979116736440554756e-62
8.698499999999989996e+01 -2.092487637515628938e-62
8.719874999999990450e+01 2.376061140117261034e-62
8.741249999999990905e+01 8.005809275304757664e-62
8.762624999999991360e+01 1.394964097230365951e-61
8.783999999999991815e+01 1.896740050469969045e-61
8.805374999999989427e+01 2.156237988234141317e-61
8.826749999999989882e+01 2.022819871565817973e-61
8.848124999999990337e+01 1.379053957892227002e-61
8.869499999999990791e+01 1.800509284417179716e-62
8.890874999999991246e+01 -1.509158965411679342e-61
8.912249999999991701e+01 -3.487520415162661100e-61
8.933624999999989313e+01 -5.413285310570022494e-61
8.954999999999989768e+01 -6.829776178095417743e-61
8.976374999999990223e+01 -7.226903677476774036e-61
8.997749999999990678e+01 -6.137524831305649885e-61
9.019124999999991132e+01 -3.259425234589532658e-61
9.040499999999991587e+01 1.415508134180297887e-61
9.061874999999989200e+01 7.491706551383063691e-61
9.083249999999989654e+01 1.411197521896239432e-60
9.104624999999990109e+01 1.998308688531723309e-60
9.125999999999990564e+01 2.350936425894275728e-60
9.147374999999991019e+01 2.304301994132097035e-60
9.168749999999991473e+01 1.723673275799710013e-60
9.190124999999989086e+01 5.455614213608211448e-61
9.211499999999989541e+01 -1.182301735584598653e-60
9.232874999999989996e+01 -3.271643524481851657e-60
9.254249999999990450e+01 -5.385387272746654580e-60
9.275624999999990905e+01 -7.059808122355796344e-60
9.296999999999991360e+01 -7.762962697338646645e-60
9.318374999999988972e+01 -6.989191539588988180e-60
9.339749999999989427e+01 -4.381352764778233089e-60
9.361124999999989882e+01 1.366874114337198248e-61
9.382499999999990337e+01 6.243214121670446220e-60
9.403874999999990791e+01 1.314898991298912239e-59
9.425249999999991246e+01 1.960682368383433310e-59
9.446624999999988859e+01 2.402609412113217897e-59
9.467999999999989313e+01 2.470366587928389340e-59
9.489374999999989768e+01 2.016088077999422621e-59
9.510749999999990223e+01 9.549291137566597371e-60
9.532124999999990678e+01 -6.940329982499711786e-60
9.553499999999991132e+01 -2.775461400530536893e-59
9.574874999999988745e+01 -4.984077911336008031e-59
9.596249999999989200e+01 -6.879131307489374538e-59
9.617624999999989654e+01 -7.933628824792772123e-59
9.638999999999990109e+01 -7.619627909813716254e-59
9.660374999999990564e+01 -5.523460948826659200e-59
9.681749999999991019e+01 -1.476128386059290377e-59
9.703124999999988631e+01 4.324293617246727600e-59
9.724499999999989086e+01 1.122762437467482082e-58
9.745874999999989541e+01 1.811533136262908389e-58
9.767249999999989996e+01 2.348037370669832494e-58
9.788624999999990450e+01 2.561905722364167781e-58
9.809999999999990905e+01 2.293210827100761734e-58
9.831374999999988518e+01 1.430766440025919816e-58
9.852749999999988972e+01 -4.681405472275573162e-60
9.874124999999989427e+01 -2.035192119399726012e-58
9.895499999999989882e+01 -4.283014425245937663e-58
9.916874999999990337e+01 -6.394890306107512708e-58
9.938249999999990791e+01 -7.866382257368424854e-58
9.959624999999988404e+01 -8.154572597246736561e-58
9.980999999999988859e+01 -6.781395408007307350e-58
1.000237499999998931e+02 -3.458963616193250173e-58
1.002374999999998977e+02 1.782277231216888352e-58
1.004512499999999022e+02 8.488946316779168167e-58
1.006649999999999068e+02 1.573414352758614270e-57
1.008787499999998829e+02 2.215039033537991224e-57
1.010924999999998875e+02 2.606806260951511453e-57
1.013062499999998920e+02 2.576649898497178076e-57
1.015199999999998965e+02 1.982356818508322527e-57
1.017337499999999011e+02 7.523692502960692389e-58
1.019474999999999056e+02 -1.074193118386018616e-57
1.021612499999999102e+02 -3.317053570004411248e-57
1.023749999999998863e+02 -5.643632576971274770e-57
1.025887499999998909e+02 -7.586348974723932778e-57
1.028024999999998954e+02 -8.594646697586262448e-57
1.030162499999999000e+02 -8.122881312379049506e-57
1.032299999999999045e+02 -5.748023625044838903e-57
1.034437499999999091e+02 -1.302727589059834020e-57
1.036574999999998852e+02 4.998996842903128708e-57
1.038712499999998897e+02 1.247268677309807730e-56
1.040849999999998943e+02 1.994261273806378906e-56
1.042987499999998988e+02 2.581769001421290341e-56
1.045124999999999034e+02 2.828214984270441290e-56
1.047262499999999079e+02 2.560113455410540617e-56
1.049399999999998840e+02 1.651717549536263056e-56
1.051537499999998886e+02 6.858341997419768790e-58
1.053674999999998931e+02 -2.092776210370996430e-56
1.055812499999998977e+02 -4.578918556885361272e-56
1.057949999999999022e+02 -6.977515227316581990e-56
1.060087499999999068e+02 -8.748339548519229158e-56
1.062224999999998829e+02 -9.292322414494501968e-56
1.064362499999998875e+02 -8.057571422162728098e-56
1.066499999999998920e+02 -4.673037822754615839e-56
1.068637499999998965e+02 9.086419586487905204e-57
1.070774999999999011e+02 8.286108630864739343e-56
1.072912499999999056e+02 1.653484424241787412e-55
1.075049999999998818e+02 2.421708113127447840e-55
1.077187499999998863e+02 2.950393076179662250e-55
1.079324999999998909e+02 3.042374322011008318e-55
1.081462499999998954e+02 2.522893764106636809e-55
1.083599999999999000e+02 1.284566962778118393e-55
1.085737499999999045e+02 -6.659532650290296853e-56
1.087874999999998806e+02 -3.168904427182114440e-55
1.090012499999998852e+02 -5.890911272346650926e-55
1.092149999999998897e+02 -8.333989630721553265e-55
1.094287499999998943e+02 -9.882616101063969989e-55
1.096424999999998988e+02 -9.892379946039441514e-55
1.098562499999999034e+02 -7.816153175082379700e-55
1.100699999999998795e+02 -3.354308740756181939e-55
1.102837499999998840e+02 3.394360045891595545e-55
1.104974999999998886e+02 1.181277655333551527e-54
1.107112499999998931e+02 2.071316527972555275e-54
1.109249999999998977e+02 2.838700577444791843e-54
1.111387499999999022e+02 3.278286179835620065e-54
1.113524999999998784e+02 3.181942691913678645e-54
1.115662499999998829e+02 2.381499935779703080e-54
1.117799999999998875e+02 7.983268921860365438e-55
1.119937499999998920e+02 -1.508638611672236171e-54
1.122074999999998965e+02 -4.307130637677553166e-54
1.124212499999999011e+02 -7.179939910630736981e-54
1.126349999999998772e+02 -9.548347115513782248e-54
1.128487499999998818e+02 -1.073788287606131775e-53
1.130624999999998863e+02 -1.008725309453059853e-53
1.132762499999998909e+02 -7.092405819753135389e-54
1.134899999999998954e+02 -1.567473497084904345e-54
1.137037499999999000e+02 6.205597007700930614e-54
1.139174999999998761e+02 1.537429191292656202e-53
1.141312499999998806e+02 2.449760363638837817e-53
1.143449999999998852e+02 3.164603092534717878e-53
1.145587499999998897e+02 3.463906561391943585e-53
1.147724999999998943e+02 3.141737023092786331e-53
1.149862499999998988e+02 2.051739948169129526e-53
1.151999999999998749e+02 1.583490028334549594e-54
1.154137499999998795e+02 -2.417773820695150823e-53
1.156274999999998840e+02 -5.371618401056482903e-53
1.158412499999998886e+02 -8.214864814344449476e-53
1.160549999999998931e+02 -1.031579762944885763e-52
1.162687499999998977e+02 -1.098291868432948170e-52
1.164824999999999022e+02 -9.589505013405601591e-53
1.166962499999998784e+02 -5.726797954864830977e-53
1.169099999999998829e+02 6.366842206610601089e-54
1.171237499999998875e+02 9.021102714083880311e-53
1.173374999999998920e+02 1.836317411721965018e-52
1.175512499999998965e+02 2.704191834252497303e-52
1.177649999999999011e+02 3.302972773544653276e-52
1.179787499999998772e+02 3.417908029408620901e-52
1.181924999999998818e+02 2.863020238813041611e-52
1.184062499999998863e+02 1.529471926054184084e-52
1.186199999999998909e+02 -5.660557684027557752e-53
1.188337499999998954e+02 -3.243077624066220986e-52
1.190474999999999000e+02 -6.140455842206393004e-52
1.192612499999998761e+02 -8.731599483475954224e-52
1.194749999999998806e+02 -1.037912523930381152e-51
1.196887499999998852e+02 -1.043059074356127538e-51
1.199024999999998897e+02 -8.348866620894490379e-52
1.201162499999998943e+02 -3.861376905900538775e-52
1.203299999999998988e+02 2.896657649888475875e-52
1.205437499999998749e+02 1.127671062519861322e-51
1.207574999999998795e+02 2.008340058413195527e-51
1.209712499999998840e+02 2.764328757780247061e-51
1.211849999999998886e+02 3.199498731183366260e-51
1.213987499999998931e+02 3.120051740045459046e-51
1.216124999999998977e+02 2.375259737356045244e-51
1.218262499999998738e+02 9.024569464226950160e-52
1.220399999999998784e+02 -1.231638833659725436e-51
1.222537499999998829e+02 -3.802995455205006009e-51
1.224674999999998875e+02 -6.425788906575039720e-51
1.226812499999998920e+02 -8.579808814021835370e-51
1.228949999999998965e+02 -9.674277589400019002e-51
1.231087499999998727e+02 -9.146537167659178720e-51
1.233224999999998772e+02 -6.586371905250996329e-51
1.235362499999998818e+02 -1.868524564052250907e-51
1.237499999999998863e+02 4.731242817137009678e-51
1.239637499999998909e+02 1.246558347704938904e-50
1.241774999999998954e+02 2.011932410080250539e-50
1.243912499999998715e+02 2.611015849669047549e-50
1.246049999999998761e+02 2.869607167487347276e-50
1.248187499999998806e+02 2.628045205566165025e-50
1.250324999999998852e+02 1.778299557707911089e-50
1.252462499999998897e+02 3.021088224117266199e-51
1.254599999999998943e+02 -1.697298767363003584e-50
1.256737499999998704e+02 -3.978370878801077527e-50
1.258874999999998749e+02 -6.167329974581684134e-50
1.261012499999998795e+02 -7.793054517994273771e-50
1.263149999999998840e+02 -8.352520440997364991e-50
1.265287499999998886e+02 -7.402896110120012518e-50
1.267424999999998931e+02 -4.669754622090248585e-50