2.024999999999579359e-01 -7.286023656311451654e-116
4.162499999999482725e-01 -1.432950083100601366e-115
6.299999999999528200e-01 -2.212901512714508580e-115
8.437499999999573674e-01 -2.793944428105508858e-115
1.057499999999947704e+00 -2.712878901090682050e-115
1.271249999999952252e+00 -1.335799999288488503e-115
1.484999999999956799e+00 2.029438827099727104e-115
1.698749999999947136e+00 7.882647960924680015e-115
1.912499999999951683e+00 1.611751047877722258e-114
2.126249999999956231e+00 2.546738222630559823e-114
2.339999999999946567e+00 3.291811035344472702e-114
2.553749999999951115e+00 3.331482658091408919e-114
2.767499999999955662e+00 1.952511123565120427e-114
2.981249999999945999e+00 -1.637200610195458009e-114
3.194999999999950546e+00 -8.039730199307977550e-114
3.408749999999955094e+00 -1.722073777930834014e-113
3.622499999999945430e+00 -2.790882520249743070e-113
3.836249999999949978e+00 -3.695311606515339164e-113
4.049999999999954525e+00 -3.887673121598807260e-113
4.263749999999944862e+00 -2.600497565790809142e-113
4.477499999999949409e+00 1.034170571155216741e-113
4.691249999999953957e+00 7.709442844722709313e-113
4.904999999999944293e+00 1.748280029761919024e-112
5.118749999999948841e+00 2.915191394013402925e-112
5.332499999999953388e+00 3.957914097480244744e-112
5.546249999999943725e+00 4.320269937968018139e-112
5.759999999999948272e+00 3.211418929211192075e-112
5.973749999999952820e+00 -2.805818934945517740e-113
6.187499999999943157e+00 -6.919424370257056085e-112
6.401249999999947704e+00 -1.686480399714690462e-111
6.614999999999952252e+00 -2.904955161838550277e-111
6.828749999999942588e+00 -4.049605303480332405e-111
7.042499999999947136e+00 -4.580020161405161166e-111
7.256249999999951683e+00 -3.714833006924849594e-111
7.469999999999942020e+00 -5.342147530008001449e-112
7.683749999999946567e+00 5.768126505392676532e-111
7.897499999999951115e+00 1.545248062428439353e-110
8.111249999999941451e+00 2.763549685328668011e-110
8.324999999999945999e+00 3.962373979167659710e-110
8.538749999999950546e+00 4.638836348628684299e-110
8.752499999999940883e+00 4.051921479081076144e-110
8.966249999999945430e+00 1.310077299273252802e-110
9.179999999999949978e+00 -4.403127461311001855e-110
9.393749999999940314e+00 -1.343484301530003651e-109
9.607499999999944862e+00 -2.511098269180844134e-109
9.821249999999949409e+00 -3.710976833682711445e-109
1.003499999999993975e+01 -4.494616991168789312e-109
1.024874999999994429e+01 -4.186882158956133843e-109
1.046249999999994884e+01 -1.956703707695343277e-109
1.067624999999993918e+01 2.989401475768249999e-109
1.088999999999994373e+01 1.106196931966859082e-108
1.110374999999994827e+01 2.179750400849966761e-108
1.131749999999993861e+01 3.329040371138793668e-108
1.153124999999994316e+01 4.170525883968630570e-108
1.174499999999994770e+01 4.112863393913687449e-108
1.195874999999993804e+01 2.410545402935151510e-108
1.217249999999994259e+01 -1.677143012244551106e-108
1.238624999999994714e+01 -8.595041990113596720e-108
1.259999999999993747e+01 -1.807095588893898985e-107
1.281374999999994202e+01 -2.861852923377307649e-107
1.302749999999994657e+01 -3.709260588727902713e-107
1.324124999999995111e+01 -3.851176101616085072e-107
1.345499999999994145e+01 -2.643741053122078669e-107
1.366874999999994600e+01 5.776093994885044005e-108
1.388249999999995055e+01 6.262092394523043862e-107
1.409624999999994088e+01 1.429530185951850802e-106
1.430999999999994543e+01 2.357929988294112383e-106
1.452374999999994998e+01 3.164190724654839018e-106
1.473749999999994031e+01 3.444678351200457144e-106
1.495124999999994486e+01 2.663880195015349877e-106
1.516499999999994941e+01 2.484202734754776874e-107
1.537874999999993975e+01 -4.228774514582327505e-106
1.559249999999994429e+01 -1.077075047140926586e-105
1.580624999999994884e+01 -1.861415183398524313e-105
1.601999999999993918e+01 -2.589828941021187114e-105
1.623374999999994373e+01 -2.947793710829956870e-105
1.644749999999994827e+01 -2.506346929383566776e-105
1.666124999999993861e+01 -7.895502401882682177e-106
1.687499999999994316e+01 2.587353517657184203e-105
1.708874999999994770e+01 7.704418568268716498e-105
1.730249999999993804e+01 1.406754556539446469e-104
1.751624999999994259e+01 2.033825548965098834e-104
1.772999999999994714e+01 2.416102124999349568e-104
1.794374999999993747e+01 2.222704884128650796e-104
1.815749999999994202e+01 1.073447479488335014e-104
1.837124999999994657e+01 -1.361610380622424319e-104
1.858499999999993690e+01 -5.203957110070699450e-104
1.879874999999994145e+01 -1.016198447749988890e-103
1.901249999999994600e+01 -1.531823410799470967e-103
1.922624999999993634e+01 -1.897897149989485919e-103
1.943999999999994088e+01 -1.868755645052157591e-103
1.965374999999994543e+01 -1.152105605725572297e-103
1.986749999999993577e+01 5.221790203871997231e-104
2.008124999999994031e+01 3.289167033199952562e-103
2.029499999999994486e+01 6.998928154224523575e-103
2.050874999999993520e+01 1.105502065010622235e-102
2.072249999999993975e+01 1.428998230849175684e-102
2.093624999999994429e+01 1.494938628226986966e-102
2.114999999999993463e+01 1.087068740918472308e-102
2.136374999999993918e+01 -6.187069808132315260e-105
2.157749999999994373e+01 -1.914221446173272110e-102
2.179124999999993406e+01 -4.578309065043668094e-102
2.200499999999993861e+01 -7.633388689732247799e-102
2.221874999999994316e+01 -1.030977330248815895e-101
2.243249999999993349e+01 -1.140348234497919405e-101
2.264624999999993804e+01 -9.375354221852421427e-102
2.285999999999994259e+01 -2.637950570058191716e-102
2.307374999999993292e+01 9.933134553208628832e-102
2.328749999999993747e+01 2.827803569415395771e-101
2.350124999999994202e+01 5.031850993400372678e-101
2.371499999999993236e+01 7.121605393431346303e-101
2.392874999999993690e+01 8.304171487474383041e-101
2.414249999999994145e+01 7.526309702855381919e-101
2.435624999999993179e+01 3.646239418003819613e-101
2.456999999999993634e+01 -4.242744433821487832e-101
2.478374999999994088e+01 -1.633944198557488166e-100
2.499749999999993122e+01 -3.156762642921583859e-100
2.521124999999993577e+01 -4.703976514370210040e-100
2.542499999999994031e+01 -5.775351397744964304e-100
2.563874999999993065e+01 -5.678495099630295782e-100
2.585249999999993520e+01 -3.625876842463315341e-100
2.606624999999993975e+01 1.069078623347439228e-100
2.627999999999994429e+01 8.693791737568578090e-100
2.649374999999993463e+01 1.876511266722650695e-99
2.670749999999993918e+01 2.965767050648631357e-99
2.692124999999994373e+01 3.835483652971128664e-99
2.713499999999993406e+01 4.048816539989459831e-99
2.734874999999993861e+01 3.084848073112249697e-99
2.756249999999994316e+01 4.520353912049280120e-100
2.777624999999993349e+01 -4.131073810218534926e-99
2.798999999999993804e+01 -1.050166298181327823e-98
2.820374999999994259e+01 -1.780554807508128481e-98
2.841749999999993292e+01 -2.430901149196323527e-98
2.863124999999993747e+01 -2.737011468092394456e-98
2.884499999999994202e+01 -2.368503190538445169e-98
2.905874999999993236e+01 -9.912344409684322618e-99
2.927249999999993690e+01 1.627601965068132493e-98
2.948624999999994145e+01 5.477415189628161825e-98
2.969999999999993179e+01 1.014652668308520829e-97
2.991374999999993634e+01 1.468919790597575476e-97
3.012749999999994088e+01 1.757614010252568054e-97
3.034124999999993122e+01 1.679882304126405211e-97
3.055499999999993577e+01 1.019444452479295380e-97
3.076874999999994031e+01 -3.968606002389028532e-98
3.098249999999993065e+01 -2.616208401270594702e-97
3.119624999999993520e+01 -5.463164858348096809e-97
3.140999999999993975e+01 -8.451006856029819109e-97
3.162374999999993008e+01 -1.073407635851467092e-96
3.183749999999993463e+01 -1.114244203151251247e-96
3.205124999999993918e+01 -8.340513029765440132e-97
3.226499999999992951e+01 -1.138749177159844922e-97
3.247874999999993406e+01 1.104194095100149029e-96
3.269249999999993861e+01 2.760156945795550919e-96
3.290624999999992895e+01 4.619974246548955334e-96
3.311999999999993349e+01 6.238096103548581539e-96
3.333374999999993804e+01 6.962014216337088022e-96
3.354749999999992838e+01 6.003738745574379117e-96
3.376124999999993292e+01 2.597874118777209765e-96
3.397499999999993747e+01 -3.748599287247309778e-96
3.418874999999992781e+01 -1.293488537124615353e-95
3.440249999999993236e+01 -2.392780103585433175e-95
3.461624999999993690e+01 -3.449948351687677248e-95
3.482999999999992724e+01 -4.116879170819017447e-95
3.504374999999993179e+01 -3.948950924688853985e-95
3.525749999999993634e+01 -2.480987015877825346e-95
3.547124999999992667e+01 6.440059669197989270e-96
3.568499999999993122e+01 5.500312726864057876e-95
3.589874999999993577e+01 1.168437222699693801e-94
3.611249999999992610e+01 1.814569923150339754e-94
3.632624999999993065e+01 2.311080066600324825e-94
3.653999999999993520e+01 2.417917253576087294e-94
3.675374999999992554e+01 1.866596293015266006e-94
3.696749999999993008e+01 4.236172982441378121e-95
3.718124999999993463e+01 -2.018567787502740145e-94
3.739499999999992497e+01 -5.333882417269697626e-94
3.760874999999992951e+01 -9.060535997146813148e-94
3.782249999999993406e+01 -1.233834257843273396e-93
3.803624999999993861e+01 -1.392748651510446752e-93
3.824999999999994316e+01 -1.235126083145329530e-93
3.846374999999991928e+01 -6.193397418630753949e-94
3.867749999999992383e+01 5.447374711736956679e-94
3.889124999999992838e+01 2.238799602405278627e-93
3.910499999999993292e+01 4.277815438427839530e-93
3.931874999999993747e+01 6.266782749212136396e-93
3.953249999999994202e+01 7.594013041212243337e-93
3.974624999999991815e+01 7.484106808808300104e-93
3.995999999999992269e+01 5.129605190826582619e-93
4.017374999999992724e+01 -9.184121644438389622e-95
4.038749999999993179e+01 -8.329046913347019203e-93
4.060124999999993634e+01 -1.894084358267667887e-92
4.081499999999994088e+01 -3.022768721711948727e-92
4.102874999999991701e+01 -3.931671790240401325e-92
4.124249999999992156e+01 -4.232094049875016573e-92
4.145624999999992610e+01 -3.488207161805355162e-92
4.166999999999993065e+01 -1.315749741275321842e-92
4.188374999999993520e+01 2.478233167454251944e-92
4.209749999999993975e+01 7.731681362559290251e-92
4.231124999999991587e+01 1.377335763761639430e-91
4.252499999999992042e+01 1.932771463949635919e-91
4.273874999999992497e+01 2.253891893152820084e-91
4.295249999999992951e+01 2.117351001912074609e-91
4.316624999999993406e+01 1.304320336196844441e-91
4.337999999999993861e+01 -3.350304987220205266e-92
4.359374999999991473e+01 -2.800857476759759589e-91
4.380749999999991928e+01 -5.860644514756477333e-91
4.402124999999992383e+01 -8.985994962861971200e-91
4.423499999999992838e+01 -1.133779749972439364e-90
4.444874999999993292e+01 -1.183029463477123674e-90
4.466249999999993747e+01 -9.299014393620678407e-91
4.487624999999991360e+01 -2.781988288657466728e-91
4.508999999999991815e+01 8.102804680241421869e-91
4.530374999999992269e+01 2.273669587511029962e-90
4.551749999999992724e+01 3.912947062629619938e-90
4.573124999999993179e+01 5.372738930656355441e-90
4.594499999999993634e+01 6.154820980796046867e-90
4.615874999999991246e+01 5.677979603356357009e-90
4.637249999999991701e+01 3.392386665204443390e-90
4.658624999999992156e+01 -1.053959716365843330e-90
4.679999999999992610e+01 -7.614623971142285488e-90
4.701374999999993065e+01 -1.564642938012972640e-89
4.722749999999993520e+01 -2.376822537180040685e-89
4.744124999999993975e+01 -2.984438382974123479e-89
4.765499999999991587e+01 -3.116197281851121696e-89
4.786874999999992042e+01 -2.485402619576951291e-89
4.808249999999992497e+01 -8.582427364560779194e-90
4.829624999999992951e+01 1.856818523927933951e-89
4.850999999999993406e+01 5.511448388739461943e-89
4.872374999999993861e+01 9.633197810288322185e-89
4.893749999999991473e+01 1.338343057330034562e-88
4.915124999999991928e+01 1.558959079591478013e-88
4.936499999999992383e+01 1.488055503815564082e-88
4.957874999999992838e+01 9.941267652371491538e-89
4.979249999999993292e+01 -1.199759514271284739e-90
5.000624999999993747e+01 -1.533039910814566408e-88
5.021999999999991360e+01 -3.441426053508075367e-88
5.043374999999991815e+01 -5.446973056223957978e-88
5.064749999999992269e+01 -7.089870366678585419e-88
5.086124999999992724e+01 -7.772906639799008387e-88
5.107499999999993179e+01 -6.843686816207709918e-88
5.128874999999993634e+01 -3.730213730976473275e-88
5.150249999999991246e+01 1.878395518439932169e-88
5.171624999999991701e+01 9.829182618400791381e-88
5.192999999999992156e+01 1.931975466102961892e-87
5.214374999999992610e+01 2.878273162680330522e-87
5.235749999999993065e+01 3.590035135105771190e-87
5.257124999999993520e+01 3.780544239405552455e-87
5.278499999999991132e+01 3.150610334732671165e-87
5.299874999999991587e+01 1.453564682411997634e-87
5.321249999999992042e+01 -1.422214407258128877e-87
5.342624999999992497e+01 -5.364438969426075859e-87
5.363999999999992951e+01 -9.959184048500737207e-87
5.385374999999993406e+01 -1.444676152758156446e-86
5.406749999999991019e+01 -1.773576887587267818e-86
5.428124999999991473e+01 -1.849752922821935278e-86
5.449499999999991928e+01 -1.535510017286131016e-86
5.470874999999992383e+01 -7.166824985174683063e-87
5.492249999999992838e+01 6.615386874667399201e-87
5.513624999999993292e+01 2.555637522998680395e-86
5.534999999999990905e+01 4.788404155213289381e-86
5.556374999999991360e+01 7.025943268597377381e-86
5.577749999999991815e+01 8.777009174824116280e-86
5.599124999999992269e+01 9.424419611559460873e-86
5.620499999999992724e+01 8.296285912460833732e-86
5.641874999999993179e+01 4.780642149403705262e-86
5.663249999999990791e+01 -1.519382916584534667e-86
5.684624999999991246e+01 -1.060133964148033882e-85
5.705999999999991701e+01 -2.187211107163813481e-85
5.727374999999992156e+01 -3.398288528971774870e-85
5.748749999999992610e+01 -4.473519720032604714e-85
5.770124999999993065e+01 -5.111198150420144015e-85
5.791499999999990678e+01 -4.949185427215636411e-85
5.812874999999991132e+01 -3.610041099193593648e-85
5.834249999999991587e+01 -7.734496713349949196e-86
5.855624999999992042e+01 3.724093034201335689e-85
5.876999999999992497e+01 9.768291300552275611e-85
5.898374999999992951e+01 1.683908805747260699e-84
5.919749999999990564e+01 2.390051092033946674e-84
5.941124999999991019e+01 2.934440128009973578e-84
5.962499999999991473e+01 3.103385321375230820e-84
5.983874999999991928e+01 2.649670848247596753e-84
6.005249999999992383e+01 1.331391272236526075e-84
6.026624999999992838e+01 -1.027340059245656802e-84
6.047999999999990450e+01 -4.455517021654419643e-84
6.069374999999990905e+01 -8.742201018875365272e-84
6.090749999999991360e+01 -1.334750839802701913e-83
6.112124999999991815e+01 -1.734287100824953491e-83
6.133499999999992269e+01 -1.941376701073327748e-83
6.154874999999992724e+01 -1.796205901138314567e-83
6.176249999999993179e+01 -1.134139077629928071e-83
6.197624999999990791e+01 1.755938539988658010e-84
6.218999999999991246e+01 2.177140632652821435e-83
6.240374999999991701e+01 4.766672964374446827e-83
6.261749999999992156e+01 7.633454649106675886e-83
6.283124999999992610e+01 1.022021162507854698e-82
6.304499999999993065e+01 1.172443858157072659e-82
6.325874999999990678e+01 1.116397197976759285e-82
6.347249999999991132e+01 7.526549128932376699e-83
6.368624999999991587e+01 1.207429359925802641e-85
6.389999999999992042e+01 -1.164332228038863816e-82
6.411374999999992497e+01 -2.680020995414061183e-82
6.432749999999992951e+01 -4.357775033104755495e-82
6.454124999999990564e+01 -5.864912426920603015e-82
6.475499999999991019e+01 -6.729791185117989232e-82
6.496874999999991473e+01 -6.386444291172375520e-82
6.518249999999991928e+01 -4.267937494476180578e-82
6.539624999999992383e+01 4.930973129583985105e-84
6.560999999999992838e+01 6.660137763464563578e-82
6.582374999999990450e+01 1.513016646447955718e-81
6.603749999999990905e+01 2.432404947859977417e-81
6.625124999999991360e+01 3.232215893685989904e-81
6.646499999999991815e+01 3.649403247139565037e-81
6.667874999999992269e+01 3.379223765439132342e-81
6.689249999999992724e+01 2.130657517519945064e-81
6.710624999999990337e+01 -2.927955292429039229e-82
6.731999999999990791e+01 -3.894489890634635801e-81
6.753374999999991246e+01 -8.384213533156501216e-81
6.774749999999991701e+01 -1.310069758822170168e-80
6.796124999999992156e+01 -1.698852888688837405e-80
6.817499999999992610e+01 -1.866300025978796959e-80
6.838874999999990223e+01 -1.659091506615626580e-80
6.860249999999990678e+01 -9.399877441910123809e-81
6.881624999999991132e+01 3.697846905027295497e-81
6.902999999999991587e+01 2.241687983102517911e-80
6.924374999999992042e+01 4.493686608344640020e-80
6.945749999999992497e+01 6.759667840950946658e-80
6.967124999999990109e+01 8.489838677336886909e-80
6.988499999999990564e+01 8.997173565835854875e-80
7.009874999999991019e+01 7.560729900872130155e-80
7.031249999999991473e+01 3.587591050026635031e-80
7.052624999999991928e+01 -3.178677486110747229e-80
7.073999999999992383e+01 -1.243266423825043889e-79
7.095374999999989996e+01 -2.311286169860204448e-79
7.116749999999990450e+01 -3.330168530699429973e-79
7.138124999999990905e+01 -4.028939885251292566e-79
7.159499999999991360e+01 -4.086369636880444174e-79
7.180874999999991815e+01 -3.185965348926888514e-79
7.202249999999992269e+01 -1.095637805404986804e-79
7.223624999999989882e+01 2.236089308965628815e-79
7.244999999999990337e+01 6.583332328333487587e-79
7.266374999999990791e+01 1.136912928907653036e-78
7.287749999999991246e+01 1.564351959819570570e-78
7.309124999999991701e+01 1.814265975357067829e-78
7.330499999999992156e+01 1.745166195620311903e-78
7.351874999999989768e+01 1.227869178226072406e-78
7.373249999999990223e+01 1.823953596203764984e-79
7.394624999999990678e+01 -1.380352420793024981e-78
7.415999999999991132e+01 -3.320140035100791090e-78
7.437374999999991587e+01 -5.343010563635148756e-78
7.458749999999992042e+01 -7.003201605711204467e-78
7.480124999999992497e+01 -7.742677507755318125e-78
7.501499999999990109e+01 -6.975444451469848909e-78
7.522874999999990564e+01 -4.216083281252789274e-78
7.544249999999991019e+01 7.590871030037814782e-79
7.565624999999991473e+01 7.742863071406440533e-78
7.586999999999991928e+01 1.595746848713471835e-77
7.608374999999992383e+01 2.399104800221148705e-77
7.629749999999989996e+01 2.985901878431017977e-77
7.651124999999990450e+01 3.122991137116611489e-77
7.672499999999990905e+01 2.583269983931670911e-77
7.693874999999991360e+01 1.202603035486754197e-77
7.715249999999991815e+01 -1.053791779520697730e-77
7.736624999999992269e+01 -4.027413216947092686e-77
7.757999999999989882e+01 -7.321458497663002983e-77
7.779374999999990337e+01 -1.029366569742823552e-76
7.800749999999990791e+01 -1.210493216470892172e-76
7.822124999999991246e+01 -1.183580607002355020e-76
7.843499999999991701e+01 -8.671715572012199600e-77
7.864874999999992156e+01 -2.141575053283860948e-77
7.886249999999989768e+01 7.624991559497037040e-77
7.907624999999990223e+01 1.967578032058378101e-76
7.928999999999990678e+01 3.211773508580802281e-76
7.950374999999991132e+01 4.217430679922888911e-76
7.971749999999991587e+01 4.647842822463821937e-76
7.993124999999992042e+01 4.162944824263489899e-76
8.014499999999989654e+01 2.499056971470502684e-76
8.035874999999990109e+01 -4.364529693609664700e-77
8.057249999999990564e+01 -4.472141640345894826e-76
8.078624999999991019e+01 -9.104166610206800021e-76
8.099999999999991473e+01 -1.347939415407128048e-75
8.121374999999991928e+01 -1.645537238322460383e-75
8.142749999999989541e+01 -1.675460711325816419e-75
8.164124999999989996e+01 -1.321501853702777961e-75
8.185499999999990450e+01 -5.115958918307300148e-76
8.206874999999990905e+01 7.467689328347533231e-76
8.228249999999991360e+01 2.335732383026575971e-75
8.249624999999991815e+01 4.010188325074521807e-75
8.270999999999989427e+01 5.404703681745274104e-75
8.292374999999989882e+01 6.072379591036155326e-75
8.313749999999990337e+01 5.559413708439752891e-75
8.335124999999990791e+01 3.511988777878249225e-75
8.356499999999991246e+01 -1.971667389410919609e-76
8.377874999999991701e+01 -5.345251918514802708e-75
8.399249999999989313e+01 -1.127029311987586996e-74
8.420624999999989768e+01 -1.685248529932990351e-74
8.441999999999990223e+01 -2.059971320727968260e-74
8.463374999999990678e+01 -2.085948207190602582e-74
8.484749999999991132e+01 -1.615770076942457393e-74
8.506124999999991587e+01 -5.633736483790209473e-75
8.527499999999989200e+01 1.049534903947997027e-74
8.548874999999989654e+01 3.054377685599970161e-74
8.570249999999990109e+01 5.116651708336492136e-74
8.591624999999990564e+01 6.750041638875984677e-74
8.612999999999991019e+01 7.374121439206319339e-74
8.634374999999991473e+01 6.419646132730418547e-74
8.655749999999989086e+01 3.475291526503734237e-74
8.677124999999989541e+01 -1.543236351097484649e-74
8.698499999999989996e+01 -8.234509633961928957e-74
8.719874999999990450e+01 -1.560729663316450354e-73
8.741249999999990905e+01 -2.208054990605806290e-73
8.762624999999991360e+01 -2.563209919922723184e-73
8.783999999999991815e+01 -2.412260385446601884e-73
8.805374999999989427e+01 -1.578875209540285846e-73
8.826749999999989882e+01 1.455200003037185361e-75
8.848124999999990337e+01 2.284308635904968222e-73
8.869499999999990791e+01 4.936515271843177779e-73
8.890874999999991246e+01 7.450450397242527643e-73
8.912249999999991701e+01 9.112456364247965140e-73
8.933624999999989313e+01 9.114174512716001280e-73
8.954999999999989768e+01 6.718668181706662256e-73
8.976374999999990223e+01 1.482377668193803100e-73
8.997749999999990678e+01 -6.498684900886416628e-73
9.019124999999991132e+01 -1.637039772852654010e-72
9.040499999999991587e+01 -2.639786820064115450e-72
9.061874999999989200e+01 -3.401332759384516310e-72
9.083249999999989654e+01 -3.609980278398528424e-72
9.104624999999990109e+01 -2.954560961638941770e-72
9.125999999999990564e+01 -1.205202456895760511e-72
9.147374999999991019e+01 1.689569668304179224e-72
9.168749999999991473e+01 5.506624144818160039e-72
9.190124999999989086e+01 9.677814765950370321e-72
9.211499999999989541e+01 1.327520114469535242e-71
9.232874999999989996e+01 1.508142454810378833e-71
9.254249999999990450e+01 1.376691003119207598e-71
9.275624999999990905e+01 8.178670347060248038e-72
9.296999999999991360e+01 -2.280384005146164326e-72
9.318374999999988972e+01 -1.723525056781925939e-71
9.339749999999989427e+01 -3.497353335757293110e-71
9.361124999999989882e+01 -5.224686667470886468e-71
9.382499999999990337e+01 -6.436709637290039614e-71
9.403874999999990791e+01 -6.571127722045922736e-71
9.425249999999991246e+01 -5.070080008301894299e-71
9.446624999999988859e+01 -1.523245521069952044e-71
9.467999999999989313e+01 4.158333748601203054e-71
9.489374999999989768e+01 1.156655600730307291e-70
9.510749999999990223e+01 1.966145090144481577e-70
9.532124999999990678e+01 2.672987510036084748e-70
9.553499999999991132e+01 3.049183409846025713e-70
9.574874999999988745e+01 2.839749523793449012e-70
9.596249999999989200e+01 1.813124850605785199e-70
9.617624999999989654e+01 -1.703892176135679586e-71
9.638999999999990109e+01 -3.080473583638163317e-70
9.660374999999990564e+01 -6.643476956344464962e-70
9.681749999999991019e+01 -1.029408533513041176e-69
9.703124999999988631e+01 -1.317540774476018503e-69
9.724499999999989086e+01 -1.421005481972494442e-69
9.745874999999989541e+01 -1.225809363882126595e-69
9.767249999999989996e+01 -6.364168042806002146e-70
9.788624999999990450e+01 3.924316540924996277e-70
9.809999999999990905e+01 1.821145441834078142e-69
9.831374999999988518e+01 3.494970700912716067e-69
9.852749999999988972e+01 5.127163737789061222e-69
9.874124999999989427e+01 6.305900054347388520e-69
9.895499999999989882e+01 6.534221346288402031e-69
9.916874999999990337e+01 5.308738869976018181e-69
9.938249999999990791e+01 2.236244183945345061e-69
9.959624999999988404e+01 -2.821970061726565867e-69
9.980999999999988859e+01 -9.599457538184607616e-69
1.000237499999998931e+02 -1.730022131544710251e-68
1.002374999999998977e+02 -2.454177919448007663e-68
1.004512499999999022e+02 -2.940974558571697840e-68
1.006649999999999068e+02 -2.966181005212043061e-68
1.008787499999998829e+02 -2.310120510121682766e-68
1.010924999999998875e+02 -8.109317863581127037e-69
1.013062499999998920e+02 1.571454289805300225e-68
1.015199999999998965e+02 4.690637541143577413e-68
1.017337499999999011e+02 8.163027525801683028e-68
1.019474999999999056e+02 1.134905154487110876e-67
1.021612499999999102e+02 1.338490458174083426e-67
1.023749999999998863e+02 1.328009150890938819e-67
1.025887499999998909e+02 1.008765959089751151e-67
1.028024999999998954e+02 3.140405189978016312e-68
1.030162499999999000e+02 -7.671721608534034738e-68
1.032299999999999045e+02 -2.162810841150637665e-67
1.034437499999999091e+02 -3.697188208584900458e-67
1.036574999999998852e+02 -5.084883704852997752e-67
1.038712499999998897e+02 -5.946818268660403215e-67
1.040849999999998943e+02 -5.854583419237600766e-67
1.042987499999998988e+02 -4.405346648792586891e-67
1.045124999999999034e+02 -1.323757522647185110e-67
1.047262499999999079e+02 3.420356470943163665e-67
1.049399999999998840e+02 9.498111662749767941e-67
1.051537499999998886e+02 1.613870730854238139e-66
1.053674999999998931e+02 2.210952028336662553e-66
1.055812499999998977e+02 2.579069897068398847e-66
1.057949999999999022e+02 2.536817937343861995e-66
1.060087499999999068e+02 1.915284108835979154e-66
1.062224999999998829e+02 6.008718591337507625e-67
1.064362499999998875e+02 -1.415831346726941584e-66
1.066499999999998920e+02 -3.993396093989378868e-66
1.068637499999998965e+02 -6.806361305630779034e-66
1.070774999999999011e+02 -9.338536637415630415e-66
1.072912499999999056e+02 -1.091544721558806355e-65
1.075049999999998818e+02 -1.078524806037144971e-65
1.077187499999998863e+02 -8.250670787433122044e-66
1.079324999999998909e+02 -2.844422197863000899e-66
1.081462499999998954e+02 5.472232191084249916e-66
1.083599999999999000e+02 1.612145869755963615e-65
1.085737499999999045e+02 2.777684806637537582e-65
1.087874999999998806e+02 3.833937873597348257e-65
1.090012499999998852e+02 4.507120015903165421e-65
1.092149999999998897e+02 4.492323009612504657e-65
1.094287499999998943e+02 3.506520518583918179e-65
1.096424999999998988e+02 1.358643708269244212e-65
1.098562499999999034e+02 -1.971439874721928282e-65
1.100699999999998795e+02 -6.258459915232904620e-65
1.102837499999998840e+02 -1.097967522804869425e-64
1.104974999999998886e+02 -1.530550042017765374e-64
1.107112499999998931e+02 -1.815212706396148303e-64
1.109249999999998977e+02 -1.830988505897811234e-64
1.111387499999999022e+02 -1.465035420089576395e-64
1.113524999999998784e+02 -6.399563453915597407e-65
1.115662499999998829e+02 6.554589290760940141e-65
1.117799999999998875e+02 2.337258135656207623e-64
1.119937499999998920e+02 4.205991992757369912e-64
1.122074999999998965e+02 5.942780834724717136e-64
1.124212499999999011e+02 7.129122825844226666e-64
1.126349999999998772e+02 7.295636418023384813e-64
1.128487499999998818e+02 6.000834667826367253e-64
1.130624999999998863e+02 2.935097191248627433e-64
1.132762499999998909e+02 -1.962218601923340079e-64
1.134899999999998954e+02 -8.392071405633421380e-64
1.137037499999999000e+02 -1.561724288910254015e-63
1.139174999999998761e+02 -2.244510810827626327e-63
1.141312499999998806e+02 -2.729909155312449997e-63
1.143449999999998852e+02 -2.839820042707310076e-63
1.145587499999998897e+02 -2.404882911508337366e-63
1.147724999999998943e+02 -1.303111813740743978e-63
1.149862499999998988e+02 4.964431818698522473e-64
1.151999999999998749e+02 2.892184561195666083e-63
1.154137499999998795e+02 5.620071906708498601e-63
1.156274999999998840e+02 8.245991978899342649e-63
1.158412499999998886e+02 1.019045462862414830e-62
1.160549999999998931e+02 1.079276718027084998e-62
1.162687499999998977e+02 9.416348077919720615e-63
1.164824999999999022e+02 5.588938494359741019e-63
1.166962499999998784e+02 -8.381004912483749648e-64
1.169099999999998829e+02 -9.537092900173388767e-63
1.171237499999998875e+02 -1.959188738667900554e-62
1.173374999999998920e+02 -2.946446387426698929e-62
1.175512499999998965e+02 -3.707654480281210272e-62
1.177649999999999011e+02 -4.003224398289210555e-62
1.179787499999998772e+02 -3.598845189121427387e-62
1.181924999999998818e+02 -2.315182050068240017e-62
1.184062499999998863e+02 -8.474852689482959436e-64
1.186199999999998909e+02 2.993017450198142084e-62
1.188337499999998954e+02 6.610363574336110873e-62
1.190474999999999000e+02 1.023696152834869779e-61
1.192612499999998761e+02 1.314558647221649341e-61
1.194749999999998806e+02 1.448707754445630456e-61
1.196887499999998852e+02 1.341728563284703000e-61
1.199024999999998897e+02 9.269135132528921863e-62
1.201162499999998943e+02 1.751294647813028204e-62
1.203299999999998988e+02 -8.857100373866460228e-62
1.205437499999998749e+02 -2.155640236361175075e-61
1.207574999999998795e+02 -3.456736979469648669e-61
1.209712499999998840e+02 -4.540750753385191857e-61
1.211849999999998886e+02 -5.113582691900132923e-61
1.213987499999998931e+02 -4.877683738688320345e-61
1.216124999999998977e+02 -3.590236854170824132e-61
1.218262499999998738e+02 -1.131055212896640634e-61
1.220399999999998784e+02 2.429959495805122381e-61
1.222537499999998829e+02 6.779438771385331028e-61
1.224674999999998875e+02 1.133685683644028244e-60
1.226812499999998920e+02 1.527566333842692219e-60
1.228949999999998965e+02 1.760070841777612874e-60
1.231087499999998727e+02 1.728619685964471794e-60
1.233224999999998772e+02 1.346782333029630208e-60
1.235362499999998818e+02 5.669763233758228167e-61
1.237499999999998863e+02 -5.966408723940051736e-61
1.239637499999998909e+02 -2.049552953979078991e-60
1.241774999999998954e+02 -3.607692468475849029e-60
1.243912499999998715e+02 -5.002729086578659985e-60
1.246049999999998761e+02 -5.905757049656358457e-60
1.248187499999998806e+02 -5.971002592143858100e-60
1.250324999999998852e+02 -4.897773812255417422e-60
1.252462499999998897e+02 -2.504677581597697625e-60
1.254599999999998943e+02 1.194308594699200739e-60
1.256737499999998704e+02 5.926201192202603614e-60
1.258874999999998749e+02 1.112447290088913607e-59
1.261012499999998795e+02 1.594016189617315124e-59
1.263149999999998840e+02 1.931177872275216151e-59