2.024999999999579359e-01 2.812667904687900337e-148
4.162499999999482725e-01 4.421179120825040862e-148
6.299999999999528200e-01 5.769007279727770577e-148
8.437499999999573674e-01 5.858329751579671293e-148
1.057499999999947704e+00 3.115838739313159277e-148
1.271249999999952252e+00 -4.513528300761503406e-148
1.484999999999956799e+00 -1.912495618936176997e-147
1.698749999999947136e+00 -4.187406256715991893e-147
1.912499999999951683e+00 -7.131042461527348734e-147
2.126249999999956231e+00 -1.010354508984117931e-146
2.339999999999946567e+00 -1.170308069053886364e-146
2.553749999999951115e+00 -9.555102046692684001e-147
2.767499999999955662e+00 -3.212441429531048586e-148
2.981249999999945999e+00 1.982921811591538587e-146
3.194999999999950546e+00 5.398710651852128354e-146
3.408749999999955094e+00 1.022326573306292408e-145
3.622499999999945430e+00 1.582175768711376345e-145
3.836249999999949978e+00 2.048902691583548460e-145
4.049999999999954525e+00 2.103514967640902318e-145
4.263749999999944862e+00 1.258292507257650837e-145
4.477499999999949409e+00 -1.110485192898553873e-145
4.691249999999953957e+00 -5.634408399439385599e-145
4.904999999999944293e+00 -1.268338523445753898e-144
5.118749999999948841e+00 -2.192075782327136834e-144
5.332499999999953388e+00 -3.168782642529690350e-144
5.546249999999943725e+00 -3.829858201150902604e-144
5.759999999999948272e+00 -3.544564259729690885e-144
5.973749999999952820e+00 -1.407887034041306704e-144
6.187499999999943157e+00 3.670392731315113762e-144
6.401249999999947704e+00 1.270705856272945355e-143
6.614999999999952252e+00 2.614657477670458984e-143
6.828749999999942588e+00 4.307378151567378399e-143
7.042499999999947136e+00 6.015325131806603765e-143
7.256249999999951683e+00 7.043141026232282622e-143
7.469999999999942020e+00 6.232966940269470406e-143
7.683749999999946567e+00 1.942190474548691914e-143
7.897499999999951115e+00 -7.809419612071839300e-143
8.111249999999941451e+00 -2.490178617702485346e-142
8.324999999999945999e+00 -5.024768155065027286e-142
8.538749999999950546e+00 -8.237722498287951493e-142
8.752499999999940883e+00 -1.154396127195245060e-141
8.966249999999945430e+00 -1.367838420336938090e-141
9.179999999999949978e+00 -1.246350593745910860e-141
9.393749999999940314e+00 -4.693698734909892063e-142
9.607499999999944862e+00 1.368155721548125800e-141
9.821249999999949409e+00 4.680676595187509454e-141
1.003499999999993975e+01 9.726197256020301136e-141
1.024874999999994429e+01 1.631528461703622847e-140
1.046249999999994884e+01 2.337551180434067959e-140
1.067624999999993918e+01 2.839451642859805664e-140
1.088999999999994373e+01 2.684926638054417601e-140
1.110374999999994827e+01 1.186676755182566311e-140
1.131749999999993861e+01 -2.544851238702767898e-140
1.153124999999994316e+01 -9.437101710486176170e-140
1.174499999999994770e+01 -2.007821228075728018e-139
1.195874999999993804e+01 -3.404904526505072138e-139
1.217249999999994259e+01 -4.893166194110911755e-139
1.238624999999994714e+01 -5.907713906646258910e-139
1.259999999999993747e+01 -5.443008783604519795e-139
1.281374999999994202e+01 -2.003354630557596179e-139
1.302749999999994657e+01 6.275070423026801760e-139
1.324124999999995111e+01 2.118754698189599041e-138
1.345499999999994145e+01 4.354950801106919109e-138
1.366874999999994600e+01 7.169103488578242434e-138
1.388249999999995055e+01 9.938228024545977749e-138
1.409624999999994088e+01 1.135140130453973794e-137
1.430999999999994543e+01 9.234365382916364566e-138
1.452374999999994998e+01 5.770065849448165425e-139
1.473749999999994031e+01 -1.802034264466556838e-137
1.495124999999994486e+01 -4.922011896147476880e-137
1.516499999999994941e+01 -9.290507990945867294e-137
1.537874999999993975e+01 -1.431511437515315572e-136
1.559249999999994429e+01 -1.845279253779564826e-136
1.580624999999994884e+01 -1.886932637509908593e-136
1.601999999999993918e+01 -1.131659311784206650e-136
1.623374999999994373e+01 9.479797079797050453e-137
1.644749999999994827e+01 4.854834267943282529e-136
1.666124999999993861e+01 1.081434175144829135e-135
1.687499999999994316e+01 1.837645064862721809e-135
1.708874999999994770e+01 2.589764319243698728e-135
1.730249999999993804e+01 3.000931949641211649e-135
1.751624999999994259e+01 2.529650977676936263e-135
1.772999999999994714e+01 4.550508436063856788e-136
1.794374999999993747e+01 -3.991953901650220922e-135
1.815749999999994202e+01 -1.134009487286228844e-134
1.837124999999994657e+01 -2.139707317924889091e-134
1.858499999999993690e+01 -3.259144952307720405e-134
1.879874999999994145e+01 -4.124484339171982506e-134
1.901249999999994600e+01 -4.102196337487251702e-134
1.922624999999993634e+01 -2.297793570295917628e-134
1.943999999999994088e+01 2.321665004608223091e-134
1.965374999999994543e+01 1.062237393021065059e-133
1.986749999999993577e+01 2.276539858244565835e-133
2.008124999999994031e+01 3.743511973542165889e-133
2.029499999999994486e+01 5.093462797181697468e-133
2.050874999999993520e+01 5.640329224047322166e-133
2.072249999999993975e+01 4.360879573478402550e-133
2.093624999999994429e+01 -3.854359606951687869e-136
2.114999999999993463e+01 -8.649196665580055196e-133
2.136374999999993918e+01 -2.214433639317680381e-132
2.157749999999994373e+01 -3.958966149642883092e-132
2.179124999999993406e+01 -5.757789960945449239e-132
2.200499999999993861e+01 -6.920475443293269415e-132
2.221874999999994316e+01 -6.358667035661498652e-132
2.243249999999993349e+01 -2.656444902342024788e-132
2.264624999999993804e+01 5.658142059464616534e-132
2.285999999999994259e+01 1.956341336852627159e-131
2.307374999999993292e+01 3.868177417250612257e-131
2.328749999999993747e+01 6.016614988009104755e-131
2.350124999999994202e+01 7.755544743034550296e-131
2.371499999999993236e+01 8.003441488195241467e-131
2.392874999999993690e+01 5.276818171842550252e-131
2.414249999999994145e+01 -2.084048893143133434e-131
2.435624999999993179e+01 -1.541258315846983206e-130
2.456999999999993634e+01 -3.488642600278595001e-130
2.478374999999994088e+01 -5.840622618748732542e-130
2.499749999999993122e+01 -8.036559547237611311e-130
2.521124999999993577e+01 -9.070179821155085870e-130
2.542499999999994031e+01 -7.485273978837775571e-130
2.563874999999993065e+01 -1.544381390507416902e-130
2.585249999999993520e+01 1.034231218778439080e-129
2.606624999999993975e+01 2.886566682446134668e-129
2.627999999999994429e+01 5.275288392669772794e-129
2.649374999999993463e+01 7.752817752178689030e-129
2.670749999999993918e+01 9.442617998011408724e-129
2.692124999999994373e+01 9.001058806419359863e-129
2.713499999999993406e+01 4.725681525627057102e-129
2.734874999999993861e+01 -5.105070694168345276e-129
2.756249999999994316e+01 -2.159112757429168195e-128
2.777624999999993349e+01 -4.425488567747956764e-128
2.798999999999993804e+01 -6.986375365206345162e-128
2.820374999999994259e+01 -9.128845683250910802e-128
2.841749999999993292e+01 -9.685901447711326266e-128
2.863124999999993747e+01 -7.088296386244052042e-128
2.884499999999994202e+01 3.886772450719928131e-129
2.905874999999993236e+01 1.411166844977334923e-127
2.927249999999993690e+01 3.427687214058295127e-127
2.948624999999994145e+01 5.885119830135879564e-127
2.969999999999993179e+01 8.245468471775441933e-127
2.991374999999993634e+01 9.554932736433304638e-127
3.012749999999994088e+01 8.448833345289682982e-127
3.034124999999993122e+01 3.311960237929762605e-127
3.055499999999993577e+01 -7.336350967915361206e-127
3.076874999999994031e+01 -2.418867093070962453e-126
3.098249999999993065e+01 -4.624613489948800295e-126
3.119624999999993520e+01 -6.979037499855966503e-126
3.140999999999993975e+01 -8.750298391053539773e-126
3.162374999999993008e+01 -8.817221611252709359e-126
3.183749999999993463e+01 -5.756996498852031723e-126
3.205124999999993918e+01 1.886992934336444715e-126
3.226499999999992951e+01 1.510819968746184255e-125
3.247874999999993406e+01 3.370484598695436477e-125
3.269249999999993861e+01 5.538640803238216720e-125
3.290624999999992895e+01 7.490906812264073922e-125
3.311999999999993349e+01 8.357220464675507944e-125
3.333374999999993804e+01 6.954370129045917590e-125
3.354749999999992838e+01 1.955856513709983730e-125
3.376124999999993292e+01 -7.752081325353054351e-125
3.397499999999993747e+01 -2.250681971618769268e-124
3.418874999999992781e+01 -4.113317765462499502e-124
3.440249999999993236e+01 -6.015842502823424490e-124
3.461624999999993690e+01 -7.321667803514699575e-124
3.482999999999992724e+01 -7.100113960877464710e-124
3.504374999999993179e+01 -4.221080411733972802e-124
3.525749999999993634e+01 2.406166556494333385e-124
3.547124999999992667e+01 1.342106670574985353e-123
3.568499999999993122e+01 2.843564953335948445e-123
3.589874999999993577e+01 4.536747737048938444e-123
3.611249999999992610e+01 5.984340399006384819e-123
3.632624999999993065e+01 6.493641411958362179e-123
3.653999999999993520e+01 5.158453345623848067e-123
3.675374999999992554e+01 1.007295199898626149e-123
3.696749999999993008e+01 -6.711496858925512974e-123
3.718124999999993463e+01 -1.810114583609080669e-122
3.739499999999992497e+01 -3.208219727325540577e-122
3.760874999999992951e+01 -4.585603425420213300e-122
3.782249999999993406e+01 -5.454915311204486174e-122
3.803624999999993861e+01 -5.129830778885015616e-122
3.824999999999994316e+01 -2.808264458314330162e-122
3.846374999999991928e+01 2.241551502380082552e-122
3.867749999999992383e+01 1.037793464201377517e-121
3.889124999999992838e+01 2.118076646563974484e-121
3.910499999999993292e+01 3.300616289887935761e-121
3.931874999999993747e+01 4.262234492619450907e-121
3.953249999999994202e+01 4.511172525147102911e-121
3.974624999999991815e+01 3.427197866674673342e-121
3.995999999999992269e+01 3.752845259159042938e-122
4.017374999999992724e+01 -5.090830647419422073e-121
4.038749999999993179e+01 -1.293731072175519236e-120
4.060124999999993634e+01 -2.230451973071827593e-120
4.081499999999994088e+01 -3.118352845830974756e-120
4.102874999999991701e+01 -3.624041822620249889e-120
4.124249999999992156e+01 -3.295656891008439328e-120
4.145624999999992610e+01 -1.627011779657181704e-120
4.166999999999993065e+01 1.812930841508524801e-120
4.188374999999993520e+01 7.180904964638543408e-120
4.209749999999993975e+01 1.410638966533783912e-119
4.231124999999991587e+01 2.143035789379301500e-119
4.252499999999992042e+01 2.701703706921125144e-119
4.273874999999992497e+01 2.775444685680503488e-119
4.295249999999992951e+01 1.988002157600331245e-119
4.316624999999993406e+01 -2.426439872299150718e-121
4.337999999999993861e+01 -3.482963832004920381e-119
4.359374999999991473e+01 -8.292355073034383211e-119
4.380749999999991928e+01 -1.384339500517696062e-118
4.402124999999992383e+01 -1.884729300157216048e-118
4.423499999999992838e+01 -2.127460754161346117e-118
4.444874999999993292e+01 -1.849495102628742636e-118
4.466249999999993747e+01 -7.713365138126309456e-119
4.487624999999991360e+01 1.323064956413911379e-118
4.508999999999991815e+01 4.470850252898503876e-118
4.530374999999992269e+01 8.392129383710573252e-118
4.551749999999992724e+01 1.235858449216829893e-117
4.573124999999993179e+01 1.511650573152652415e-117
4.594499999999993634e+01 1.492738107974912544e-117
4.615874999999991246e+01 9.794577025404735620e-118
4.637249999999991701e+01 -2.068631474416124755e-118
4.658624999999992156e+01 -2.151494725688954534e-117
4.679999999999992610e+01 -4.754138081110584472e-117
4.701374999999993065e+01 -7.633308494495881971e-117
4.722749999999993520e+01 -1.005588599488970522e-116
4.744124999999993975e+01 -1.093187310092835220e-116
4.765499999999991587e+01 -8.920613822605077071e-117
4.786874999999992042e+01 -2.690170351322184803e-117
4.808249999999992497e+01 8.649600715541913031e-117
4.829624999999992951e+01 2.496185284671288942e-116
4.850999999999993406e+01 4.443061891956232996e-116
4.872374999999993861e+01 6.300591541875258273e-116
4.893749999999991473e+01 7.418944874001258322e-116
4.915124999999991928e+01 6.945830500613335441e-116
4.936499999999992383e+01 3.961860749723312260e-116
4.957874999999992838e+01 -2.272157144650326100e-116
4.979249999999993292e+01 -1.196025133434522986e-115
5.000624999999993747e+01 -2.435009921042300096e-115
5.021999999999991360e+01 -3.733571767353980499e-115
5.043374999999991815e+01 -4.722615114901660882e-115
5.064749999999992269e+01 -4.886331412221422202e-115
5.086124999999992724e+01 -3.628184897689963571e-115
5.107499999999993179e+01 -4.058557577914639960e-116
5.128874999999993634e+01 5.062296761992400285e-115
5.150249999999991246e+01 1.253767761507014446e-114
5.171624999999991701e+01 2.099608649340628266e-114
5.192999999999992156e+01 2.843649863117981568e-114
5.214374999999992610e+01 3.187258874316115624e-114
5.235749999999993065e+01 2.762846310642732517e-114
5.257124999999993520e+01 1.204289066793087322e-114
5.278499999999991132e+01 -1.737490139294781563e-114
5.299874999999991587e+01 -6.040917688616393619e-114
5.321249999999992042e+01 -1.124583662837663916e-113
5.342624999999992497e+01 -1.631471659810052650e-113
5.363999999999992951e+01 -1.958527749294427115e-113
5.385374999999993406e+01 -1.888808437874636745e-113
5.406749999999991019e+01 -1.189807281398976910e-113
5.428124999999991473e+01 3.240237555251674040e-114
5.449499999999991928e+01 2.703443129329086791e-113
5.470874999999992383e+01 5.762579503958514997e-113
5.492249999999992838e+01 8.985975233477802013e-113
5.513624999999993292e+01 1.147920860645225930e-112
5.534999999999990905e+01 1.200623674686973262e-112
5.556374999999991360e+01 9.156915039170117533e-113
5.577749999999991815e+01 1.675071641173071680e-113
5.599124999999992269e+01 -1.105334917010142239e-112
5.620499999999992724e+01 -2.840282571586911218e-112
5.641874999999993179e+01 -4.791846028067834565e-112
5.663249999999990791e+01 -6.492242512277021567e-112
5.684624999999991246e+01 -7.256325211640489885e-112
5.705999999999991701e+01 -6.257232787303753845e-112
5.727374999999992156e+01 -2.693854588613846917e-112
5.748749999999992610e+01 3.944071928676871607e-112
5.770124999999993065e+01 1.353413092116465108e-111
5.791499999999990678e+01 2.496060010073189233e-111
5.812874999999991132e+01 3.583528686510144067e-111
5.834249999999991587e+01 4.243787822298585909e-111
5.855624999999992042e+01 4.003251401000143475e-111
5.876999999999992497e+01 2.369902462842738803e-111
5.898374999999992951e+01 -1.025542644641659924e-111
5.919749999999990564e+01 -6.237729125328483830e-111
5.941124999999991019e+01 -1.279163650549680176e-110
5.962499999999991473e+01 -1.949656233790416937e-110
5.983874999999991928e+01 -2.436500449541719397e-110
6.005249999999992383e+01 -2.472750803209430715e-110
6.026624999999992838e+01 -1.763109071577946162e-110
6.047999999999990450e+01 -5.761902677869810791e-112
6.069374999999990905e+01 2.742301375702250664e-110
6.090749999999991360e+01 6.457936335184528746e-110
6.112124999999991815e+01 1.051384411466125931e-109
6.133499999999992269e+01 1.386585735320249441e-109
6.154874999999992724e+01 1.502850676050929392e-109
6.176249999999993179e+01 1.225587526716355863e-109
6.197624999999990791e+01 3.916590682106202940e-110
6.218999999999991246e+01 -1.093042136676132932e-109
6.240374999999991701e+01 -3.181021195484513736e-109
6.261749999999992156e+01 -5.608463438870844972e-109
6.283124999999992610e+01 -7.839926249484443071e-109
6.304499999999993065e+01 -9.061552753388160369e-109
6.325874999999990678e+01 -8.255325965276336061e-109
6.347249999999991132e+01 -4.382520785957525519e-109
6.368624999999991587e+01 3.311119451302280834e-109
6.389999999999992042e+01 1.488511929828337974e-108
6.411374999999992497e+01 2.924783572694411980e-108
6.432749999999992951e+01 4.376352878823371078e-108
6.454124999999990564e+01 5.408182450871981834e-108
6.475499999999991019e+01 5.438034491770455300e-108
6.496874999999991473e+01 3.820555883161971644e-108
6.518249999999991928e+01 3.204393311055823757e-111
6.539624999999992383e+01 -6.248076696176229279e-108
6.560999999999992838e+01 -1.457775471857845743e-107
6.582374999999990450e+01 -2.377720883072493800e-107
6.603749999999990905e+01 -3.161252233523087793e-107
6.625124999999991360e+01 -3.485192286208845298e-107
6.646499999999991815e+01 -2.960892058917436774e-107
6.667874999999992269e+01 -1.209520332955207889e-107
6.689249999999992724e+01 2.018604748647076771e-107
6.710624999999990337e+01 6.688723800196904036e-107
6.731999999999990791e+01 1.231408564476081619e-106
6.753374999999991246e+01 1.781807683742123835e-106
6.774749999999991701e+01 2.148507502804710654e-106
6.796124999999992156e+01 2.106934422049594846e-106
6.817499999999992610e+01 1.412756555074219785e-106
6.838874999999990223e+01 -1.384568219487730431e-107
6.860249999999990678e+01 -2.626359619365870985e-106
6.881624999999991132e+01 -5.905007818268019335e-106
6.902999999999991587e+01 -9.505678033180176194e-106
6.924374999999992042e+01 -1.257382938983064064e-105
6.945749999999992497e+01 -1.387944769349181543e-105
6.967124999999990109e+01 -1.194272427800024265e-105
6.988499999999990564e+01 -5.309293422061955383e-106
7.009874999999991019e+01 7.013002436835390509e-106
7.031249999999991473e+01 2.498301208122416325e-105
7.052624999999991928e+01 4.690308105896732252e-105
7.073999999999992383e+01 6.889078271664462026e-105
7.095374999999989996e+01 8.465448726114569998e-105
7.116749999999990450e+01 8.582135608496682713e-105
7.138124999999990905e+01 6.305922467041588596e-105
7.159499999999991360e+01 8.153916806893215231e-106
7.180874999999991815e+01 -8.297010895039905385e-105
7.202249999999992269e+01 -2.065721940242907747e-104
7.223624999999989882e+01 -3.474051446875555971e-104
7.244999999999990337e+01 -4.760465003115769070e-104
7.266374999999990791e+01 -5.486182408874371074e-104
7.287749999999991246e+01 -5.104089292179570702e-104
7.309124999999991701e+01 -3.047229242078674465e-104
7.330499999999992156e+01 1.123912618692591740e-104
7.351874999999989768e+01 7.521358268812714399e-104
7.373249999999990223e+01 1.570115447298331692e-103
7.394624999999990678e+01 2.445319686054721895e-103
7.415999999999991132e+01 3.167878095260762747e-103
7.437374999999991587e+01 3.444214679812758973e-103
7.458749999999992042e+01 2.928519235146209984e-103
7.480124999999992497e+01 1.287449563399144463e-103
7.501499999999990109e+01 -1.700115314467320570e-103
7.522874999999990564e+01 -6.015046562605913875e-103
7.544249999999991019e+01 -1.126022429898175078e-102
7.565624999999991473e+01 -1.654525709830606892e-102
7.586999999999991928e+01 -2.043860326215857592e-102
7.608374999999992383e+01 -2.103996873797234183e-102
7.629749999999989996e+01 -1.622396207168491734e-102
7.651124999999990450e+01 -4.089046055612524875e-103
7.672499999999990905e+01 1.639030955175624547e-102
7.693874999999991360e+01 4.456702883305362409e-102
7.715249999999991815e+01 7.731283677228288036e-102
7.736624999999992269e+01 1.084107254038806151e-101
7.757999999999989882e+01 1.284311490118112768e-101
7.779374999999990337e+01 1.254079931638565240e-101
7.800749999999990791e+01 8.659744689604515670e-102
7.822124999999991246e+01 1.474234953830006625e-103
7.843499999999991701e+01 -1.341253453411917537e-101
7.864874999999992156e+01 -3.131665140524894358e-101
7.886249999999989768e+01 -5.127878317674487394e-101
7.907624999999990223e+01 -6.912504191830199944e-101
7.928999999999990678e+01 -7.881995513020891527e-101
7.950374999999991132e+01 -7.300841678064323700e-101
7.971749999999991587e+01 -4.422578601457245065e-101
7.993124999999992042e+01 1.316315842509471107e-101
8.014499999999989654e+01 1.003963092746679985e-100
8.035874999999990109e+01 2.114432896796118005e-100
8.057249999999990564e+01 3.304257137272240412e-100
8.078624999999991019e+01 4.301858137311456464e-100
8.099999999999991473e+01 4.730447001724652411e-100
8.121374999999991928e+01 4.148025334139694429e-100
8.142749999999989541e+01 2.127691254389991824e-100
8.164124999999989996e+01 -1.620111900480465818e-100
8.185499999999990450e+01 -7.092009193992021314e-100
8.206874999999990905e+01 -1.382515559934465687e-99
8.228249999999991360e+01 -2.075778471591851240e-99
8.249624999999991815e+01 -2.616930357364331890e-99
8.270999999999989427e+01 -2.776103865671204229e-99
8.292374999999989882e+01 -2.293604060071614250e-99
8.313749999999990337e+01 -9.316613066937273922e-100
8.335124999999990791e+01 1.450293953933562119e-99
8.356499999999991246e+01 4.803460951060054864e-99
8.377874999999991701e+01 8.795444582629983097e-99
8.399249999999989313e+01 1.273772995744918283e-98
8.420624999999989768e+01 1.556624096950255262e-98
8.441999999999990223e+01 1.590998251132223731e-98
8.463374999999990678e+01 1.227914711365668686e-98
8.484749999999991132e+01 3.390118277451667979e-99
8.506124999999991587e+01 -1.138156708570898699e-98
8.527499999999989200e+01 -3.146799480994668696e-98
8.548874999999989654e+01 -5.459090485348126630e-98
8.570249999999990109e+01 -7.640378238150629888e-98
8.591624999999990564e+01 -9.047736091049175272e-98
8.612999999999991019e+01 -8.882353515103735602e-98
8.634374999999991473e+01 -6.311939291453686709e-98
8.655749999999989086e+01 -6.698694256808303771e-99
8.677124999999989541e+01 8.278631724336334234e-98
8.698499999999989996e+01 2.003598117405019969e-97
8.719874999999990450e+01 3.309720138037070930e-97
8.741249999999990905e+01 4.478649366159242108e-97
8.762624999999991360e+01 5.130975802604304206e-97
8.783999999999991815e+01 4.812819689905644607e-97
8.805374999999989427e+01 3.073175615456466494e-97
8.826749999999989882e+01 -4.170400375516513300e-98
8.848124999999990337e+01 -5.712501550559359440e-97
8.869499999999990791e+01 -1.242909038409254401e-96
8.890874999999991246e+01 -1.960405104193906368e-96
8.912249999999991701e+01 -2.563058879687331487e-96
8.933624999999989313e+01 -2.832454006815851114e-96
8.954999999999989768e+01 -2.517758001215026995e-96
8.976374999999990223e+01 -1.383227729382272728e-96
8.997749999999990678e+01 7.224492303437813614e-97
9.019124999999991132e+01 3.781217610579213076e-96
9.040499999999991587e+01 7.518809099200603747e-96
9.061874999999989200e+01 1.133756672473337609e-95
9.083249999999989654e+01 1.429702318951893208e-95
9.104624999999990109e+01 1.517298739921527110e-95
9.125999999999990564e+01 1.262196343672480361e-95
9.147374999999991019e+01 5.464678549915364597e-96
9.168749999999991473e+01 -6.921145194983522963e-96
9.190124999999989086e+01 -2.414236576953065633e-95
9.211499999999989541e+01 -4.435031095671099379e-95
9.232874999999989996e+01 -6.394297628307855885e-95
9.254249999999990450e+01 -7.756254280168701116e-95
9.275624999999990905e+01 -7.854579403814664299e-95
9.296999999999991360e+01 -5.995093731401767816e-95
9.318374999999988972e+01 -1.620001074421984454e-95
9.339749999999989427e+01 5.476312432192827401e-95
9.361124999999989882e+01 1.490859341495218844e-94
9.382499999999990337e+01 2.548888948801262373e-94
9.403874999999990791e+01 3.511053445559944154e-94
9.425249999999991246e+01 4.080831473887073004e-94
9.446624999999988859e+01 3.907167087532573651e-94
9.467999999999989313e+01 2.646245531366186137e-94
9.489374999999989768e+01 5.367785740008238452e-96
9.510749999999990223e+01 -3.900857246958284359e-94
9.532124999999990678e+01 -8.914431475589182746e-94
9.553499999999991132e+01 -1.425556774243774729e-93
9.574874999999988745e+01 -1.872983983555513731e-93
9.596249999999989200e+01 -2.074683616160096892e-93
9.617624999999989654e+01 -1.852369092082437808e-93
9.638999999999990109e+01 -1.044326680082799246e-93
9.660374999999990564e+01 4.445587202333332828e-94
9.681749999999991019e+01 2.584150592487204222e-93
9.703124999999988631e+01 5.162464912347984463e-93
9.724499999999989086e+01 7.746777104088274295e-93
9.745874999999989541e+01 9.681534315045804458e-93
9.767249999999989996e+01 1.014245709759153845e-92
9.788624999999990450e+01 8.261620317181922692e-93
9.809999999999990905e+01 3.327529912160918523e-93
9.831374999999988518e+01 -4.953101708306923650e-93
9.852749999999988972e+01 -1.616787826079970415e-92
9.874124999999989427e+01 -2.894647700235609961e-92
9.895499999999989882e+01 -4.082643001578572012e-92
9.916874999999990337e+01 -4.833124752375523533e-92
9.938249999999990791e+01 -4.734818233394476610e-92
9.959624999999988404e+01 -3.385979276465698729e-92
9.980999999999988859e+01 -5.019575090897300156e-93
1.000237499999998931e+02 3.953166657152382807e-92
1.002374999999998977e+02 9.632610163444826560e-92
1.004512499999999022e+02 1.570384627204995900e-91
1.006649999999999068e+02 2.081848419582647890e-91
1.008787499999998829e+02 2.319931486397250092e-91
1.010924999999998875e+02 2.088072863873840204e-91
1.013062499999998920e+02 1.211730220139694113e-91
1.015199999999998965e+02 -4.060569967411181151e-92
1.017337499999999011e+02 -2.721351178607766556e-91
1.019474999999999056e+02 -5.490653470947705551e-91
1.021612499999999102e+02 -8.234268515990113351e-91
1.023749999999998863e+02 -1.024202546549632094e-90
1.025887499999998909e+02 -1.064085978732147517e-90
1.028024999999998954e+02 -8.537498246571214391e-91
1.030162499999999000e+02 -3.236714164393558622e-91
1.032299999999999045e+02 5.483588840220096408e-91
1.034437499999999091e+02 1.708306459151889848e-90
1.036574999999998852e+02 3.002262242037614522e-90
1.038712499999998897e+02 4.166781603851436483e-90
1.040849999999998943e+02 4.842527127463587261e-90
1.042987499999998988e+02 4.619139537321985928e-90
1.045124999999999034e+02 3.115117677412973163e-90
1.047262499999999079e+02 8.934165269942767106e-92
1.049399999999998840e+02 -4.428903681490865272e-90
1.051537499999998886e+02 -1.001571918105459583e-89
1.053674999999998931e+02 -1.576887636494422071e-89
1.055812499999998977e+02 -2.030577279994700883e-89
1.057949999999999022e+02 -2.188329785793921930e-89
1.060087499999999068e+02 -1.866810564235156882e-89
1.062224999999998829e+02 -9.161013552163306392e-90
1.064362499999998875e+02 7.258515163046587199e-90
1.066499999999998920e+02 2.974915989694487445e-89
1.068637499999998965e+02 5.551646973004897188e-89
1.070774999999999011e+02 7.958378134745866995e-89
1.072912499999999056e+02 9.501054785702500861e-89
1.075049999999998818e+02 9.371791220677481028e-89
1.077187499999998863e+02 6.800268607961409988e-89
1.079324999999998909e+02 1.268349553321622407e-89
1.081462499999998954e+02 -7.236621011279159502e-89
1.083599999999999000e+02 -1.797605647376995002e-88
1.085737499999999045e+02 -2.928839269991335712e-88
1.087874999999998806e+02 -3.857077401743985944e-88
1.090012499999998852e+02 -4.249230595543872766e-88
1.092149999999998897e+02 -3.749513691610453696e-88
1.094287499999998943e+02 -2.059287158967802791e-88
1.096424999999998988e+02 9.595703037767740788e-89
1.098562499999999034e+02 5.172935665363446250e-88
1.100699999999998795e+02 1.007890761360700754e-87
1.102837499999998840e+02 1.476055688707674432e-87
1.104974999999998886e+02 1.792197937623156907e-87
1.107112499999998931e+02 1.803803337564234662e-87
1.109249999999998977e+02 1.363354020193677907e-87
1.111387499999999022e+02 3.682172788702262382e-88
1.113524999999998784e+02 -1.191990122882406855e-87
1.115662499999998829e+02 -3.189087333775543179e-87
1.117799999999998875e+02 -5.323351272811680845e-87
1.119937499999998920e+02 -7.118565431418688466e-87
1.122074999999998965e+02 -7.959578500702430236e-87
1.124212499999999011e+02 -7.182860615993142105e-87
1.126349999999998772e+02 -4.222000012439074015e-87
1.128487499999998818e+02 1.202971764638544938e-87
1.130624999999998863e+02 8.879893480455483775e-87
1.132762499999998909e+02 1.792693461308338481e-86
1.134899999999998954e+02 2.670142229422261132e-86
1.137037499999999000e+02 3.285859581390384142e-86
1.139174999999998761e+02 3.361555509658240009e-86
1.141312499999998806e+02 2.624948587344444579e-86
1.143449999999998852e+02 8.813482925289438017e-87
1.145587499999998897e+02 -1.900954978572067567e-86
1.147724999999998943e+02 -5.506637793175942821e-86
1.149862499999998988e+02 -9.412477817186776998e-86
1.151999999999998749e+02 -1.277581073177137355e-85
1.154137499999998795e+02 -1.449811758206651178e-85
1.156274999999998840e+02 -1.338255265990071193e-85
1.158412499999998886e+02 -8.389243826200013432e-86
1.160549999999998931e+02 1.030661644381917527e-86
1.162687499999998977e+02 1.456983622305027158e-85
1.164824999999999022e+02 3.074590841350817040e-85
1.166962499999998784e+02 4.673030828057459881e-85
1.169099999999998829e+02 5.843576015308540503e-85
1.171237499999998875e+02 6.095938497490641346e-85
1.173374999999998920e+02 4.943365705010168147e-85
1.175512499999998965e+02 2.025918157261306923e-85
1.177649999999999011e+02 -2.741425308591866098e-85
1.179787499999998772e+02 -9.021500798313000032e-85
1.181924999999998818e+02 -1.594569440620557597e-84
1.184062499999998863e+02 -2.208727792338282386e-84
1.186199999999998909e+02 -2.556161526148859121e-84
1.188337499999998954e+02 -2.428598051803372847e-84
1.190474999999999000e+02 -1.640681030422782107e-84
1.192612499999998761e+02 -8.640729659055632637e-86
1.194749999999998806e+02 2.198538189708844911e-84
1.196887499999998852e+02 4.981357902397856682e-84
1.199024999999998897e+02 7.800497030230786569e-84
1.201162499999998943e+02 9.976344950064678064e-84
1.203299999999998988e+02 1.068070170902519688e-83
1.205437499999998749e+02 9.074247162769138609e-84
1.207574999999998795e+02 4.508566101381135938e-84
1.209712499999998840e+02 -3.228218687024557260e-84
1.211849999999998886e+02 -1.366328661068312883e-83
1.213987499999998931e+02 -2.544847068646157824e-83
1.216124999999998977e+02 -3.629973167331189840e-83
1.218262499999998738e+02 -4.313962099526551138e-83
1.220399999999998784e+02 -4.249801512533590794e-83
1.222537499999998829e+02 -3.118742770642428472e-83
1.224674999999998875e+02 -7.208987300578859921e-84
1.226812499999998920e+02 2.923084289779177481e-83
1.228949999999998965e+02 7.479280269875806686e-83
1.231087499999998727e+02 1.224328951821427195e-82
1.233224999999998772e+02 1.614823804794932300e-82
1.235362499999998818e+02 1.786469356731046290e-82
1.237499999999998863e+02 1.600849210207903051e-82
1.239637499999998909e+02 9.453143775441701809e-83
1.241774999999998954e+02 -2.283458527797388419e-83
1.243912499999998715e+02 -1.863960428159737191e-82
1.246049999999998761e+02 -3.768909449472959132e-82
1.248187499999998806e+02 -5.601146255574266836e-82
1.250324999999998852e+02 -6.886753815952653465e-82
1.252462499999998897e+02 -7.077034018316005611e-82