2.024999999999579359e-01 8.259092126748121300e-108
4.162499999999482725e-01 -1.193800659016016934e-107
6.299999999999528200e-01 -4.775945342380405958e-107
8.437499999999573674e-01 -9.780358831411745664e-107
1.057499999999947704e+00 -1.520662048528691578e-106
1.271249999999952252e+00 -1.879335593478550488e-106
1.484999999999956799e+00 -1.682861321994324447e-106
1.698749999999947136e+00 -4.482548231069099040e-107
1.912499999999951683e+00 2.296628063397644314e-106
2.126249999999956231e+00 6.770141909609894273e-106
2.339999999999946567e+00 1.257019116725968238e-105
2.553749999999951115e+00 1.823739387741758035e-105
2.767499999999955662e+00 2.088947600060759693e-105
2.981249999999945999e+00 1.617526879672337434e-105
3.194999999999950546e+00 -1.110005955375342242e-106
3.408749999999955094e+00 -3.538514210809982937e-105
3.622499999999945430e+00 -8.738750191297584232e-105
3.836249999999949978e+00 -1.501610245076220145e-104
4.049999999999954525e+00 -2.047338525978376093e-104
4.263749999999944862e+00 -2.172255859782874315e-104
4.477499999999949409e+00 -1.401419699407164418e-104
4.691249999999953957e+00 7.868143743036244893e-105
4.904999999999944293e+00 4.762662015596857029e-104
5.118749999999948841e+00 1.042563415244927263e-103
5.332499999999953388e+00 1.679605530755403870e-103
5.546249999999943725e+00 2.162109512180587146e-103
5.759999999999948272e+00 2.119086728136651522e-103
5.973749999999952820e+00 1.064858873739605791e-103
6.187499999999943157e+00 -1.487996207020827885e-103
6.401249999999947704e+00 -5.808133549271076742e-103
6.614999999999952252e+00 -1.161673381240140025e-102
6.828749999999942588e+00 -1.769850876799184555e-102
7.042499999999947136e+00 -2.157213805944976251e-102
7.256249999999951683e+00 -1.942389681177677131e-102
7.469999999999942020e+00 -6.577854937022951295e-103
7.683749999999946567e+00 2.121323499394454875e-102
7.897499999999951115e+00 6.547886258987286097e-102
8.111249999999941451e+00 1.218489287876293808e-101
8.324999999999945999e+00 1.765774113309378528e-101
8.538749999999950546e+00 2.040429617656259376e-101
8.752499999999940883e+00 1.672154177537552305e-101
8.966249999999945430e+00 2.356188171194840180e-102
9.179999999999949978e+00 -2.613039032340783553e-101
9.393749999999940314e+00 -6.912581770053796328e-101
9.607499999999944862e+00 -1.210563872714825450e-100
9.821249999999949409e+00 -1.674697394174178782e-100
1.003499999999993975e+01 -1.833719641313352321e-100
1.024874999999994429e+01 -1.346509566558458595e-100
1.046249999999994884e+01 1.530449129871749174e-101
1.067624999999993918e+01 2.920718980418973006e-100
1.088999999999994373e+01 6.895058080193864729e-100
1.110374999999994827e+01 1.144514353891974016e-99
1.131749999999993861e+01 1.514151409946828149e-99
1.153124999999994316e+01 1.566826269781454750e-99
1.174499999999994770e+01 1.003612331625906326e-99
1.195874999999993804e+01 -4.734086258455137404e-100
1.217249999999994259e+01 -3.034271231496997227e-99
1.238624999999994714e+01 -6.539212352810095088e-99
1.259999999999993747e+01 -1.033150803306788300e-98
1.281374999999994202e+01 -1.307091401582798706e-98
1.302749999999994657e+01 -1.271238958506425373e-98
1.324124999999995111e+01 -6.762297114930603783e-99
1.345499999999994145e+01 7.060678584263288792e-99
1.366874999999994600e+01 2.969524991553960156e-98
1.388249999999995055e+01 5.921548618907992666e-98
1.409624999999994088e+01 8.922332573296459559e-98
1.430999999999994543e+01 1.077533281495166098e-97
1.452374999999994998e+01 9.757155137171365576e-98
1.473749999999994031e+01 3.890280868394010388e-98
1.495124999999994486e+01 -8.453132573504110834e-98
1.516499999999994941e+01 -2.759249186903371361e-97
1.537874999999993975e+01 -5.132831335079689919e-97
1.559249999999994429e+01 -7.377195121590176394e-97
1.580624999999994884e+01 -8.472951402312628506e-97
1.601999999999993918e+01 -7.034503341288831029e-97
1.623374999999994373e+01 -1.576381808263820116e-97
1.644749999999994827e+01 8.963485274736479631e-97
1.666124999999993861e+01 2.444947936352134722e-96
1.687499999999994316e+01 4.263625930956793034e-96
1.708874999999994770e+01 5.837948874982295233e-96
1.730249999999993804e+01 6.338841915317299435e-96
1.751624999999994259e+01 4.705361329480343170e-96
1.772999999999994714e+01 -1.129076915693873790e-97
1.794374999999993747e+01 -8.725090132947672226e-96
1.815749999999994202e+01 -2.070468455362977250e-95
1.837124999999994657e+01 -3.394211398696653427e-95
1.858499999999993690e+01 -4.416293599123344645e-95
1.879874999999994145e+01 -4.493525752363035540e-95
1.901249999999994600e+01 -2.854598516212923568e-95
1.922624999999993634e+01 1.192762420364944226e-95
1.943999999999994088e+01 7.925040531407439871e-95
1.965374999999994543e+01 1.677059793251090510e-94
1.986749999999993577e+01 2.588028209407504699e-94
2.008124999999994031e+01 3.187414586125828730e-94
2.029499999999994486e+01 3.000017235188117181e-94
2.050874999999993520e+01 1.495743004743650785e-94
2.072249999999993975e+01 -1.743536016131369221e-94
2.093624999999994429e+01 -6.774261029043188420e-94
2.114999999999993463e+01 -1.299436919834029449e-93
2.136374999999993918e+01 -1.888080997372109043e-93
2.157749999999994373e+01 -2.189062855622140227e-93
2.179124999999993406e+01 -1.868745278375981692e-93
2.200499999999993861e+01 -5.848344026019331961e-94
2.221874999999994316e+01 1.886710684862913667e-93
2.243249999999993349e+01 5.476322811918258607e-93
2.264624999999993804e+01 9.629559394735845147e-93
2.285999999999994259e+01 1.316275497347520814e-92
2.307374999999993292e+01 1.425645485471221893e-92
2.328749999999993747e+01 1.069059374582314102e-92
2.350124999999994202e+01 4.074988608896663561e-94
2.371499999999993236e+01 -1.757570934050684379e-92
2.392874999999993690e+01 -4.200364095121868177e-92
2.414249999999994145e+01 -6.823518140889510230e-92
2.435624999999993179e+01 -8.756652901833203985e-92
2.456999999999993634e+01 -8.762582729174541968e-92
2.478374999999994088e+01 -5.446021838564279496e-92
2.499749999999993122e+01 2.326969397551313958e-92
2.521124999999993577e+01 1.480861382862701536e-91
2.542499999999994031e+01 3.064209913560010721e-91
2.563874999999993065e+01 4.622922327472341335e-91
2.585249999999993520e+01 5.550196751874428672e-91
2.606624999999993975e+01 5.047139970267285511e-91
2.627999999999994429e+01 2.289439636769121632e-91
2.649374999999993463e+01 -3.278742032856170231e-91
2.670749999999993918e+01 -1.154576527367669534e-90
2.692124999999994373e+01 -2.130591945748198157e-90
2.713499999999993406e+01 -2.994736062942045046e-90
2.734874999999993861e+01 -3.345232417883324374e-90
2.756249999999994316e+01 -2.692666209195871215e-90
2.777624999999993349e+01 -5.826324803847418846e-91
2.798999999999993804e+01 3.209842623517485866e-90
2.820374999999994259e+01 8.437600927762591954e-90
2.841749999999993292e+01 1.414814538120849239e-89
2.863124999999993747e+01 1.855373605126783410e-89
2.884499999999994202e+01 1.912403879014831060e-89
2.905874999999993236e+01 1.301867341169092197e-89
2.927249999999993690e+01 -2.070068776507222734e-90
2.948624999999994145e+01 -2.669926526071273607e-89
2.969999999999993179e+01 -5.828033231382794068e-89
2.991374999999993634e+01 -8.990459486959127806e-89
3.012749999999994088e+01 -1.099729707643432009e-88
3.034124999999993122e+01 -1.033072994556030817e-88
3.055499999999993577e+01 -5.432686701600716713e-89
3.076874999999994031e+01 4.749867475097241656e-89
3.098249999999993065e+01 2.004067940685572511e-88
3.119624999999993520e+01 3.827786138845130731e-88
3.140999999999993975e+01 5.478147822348855748e-88
3.162374999999993008e+01 6.238834292285046469e-88
3.183749999999993463e+01 5.241619553924994982e-88
3.205124999999993918e+01 1.681824812491234980e-88
3.226499999999992951e+01 -4.847375085070076950e-88
3.247874999999993406e+01 -1.394537643684110203e-87
3.269249999999993861e+01 -2.401872470800010907e-87
3.290624999999992895e+01 -3.207531153461889656e-87
3.311999999999993349e+01 -3.388968744571744188e-87
3.333374999999993804e+01 -2.472101610497133126e-87
3.354749999999992838e+01 -6.831839641068066919e-89
3.376124999999993292e+01 3.930416896963093898e-87
3.397499999999993747e+01 9.130977010430922508e-87
3.418874999999992781e+01 1.445570860342244221e-86
3.440249999999993236e+01 1.808586151199625661e-86
3.461624999999993690e+01 1.763329418100924201e-86
3.482999999999992724e+01 1.062516431878956010e-86
3.504374999999993179e+01 -4.671338491448099288e-87
3.525749999999993634e+01 -2.816097074960788582e-86
3.547124999999992667e+01 -5.678800173905581165e-86
3.568499999999993122e+01 -8.373230774806859983e-86
3.589874999999993577e+01 -9.842580193924283091e-86
3.611249999999992610e+01 -8.790060379505089448e-86
3.632624999999993065e+01 -3.983177773851250332e-86
3.653999999999993520e+01 5.273163683824184503e-86
3.675374999999992554e+01 1.855503755527661187e-85
3.696749999999993008e+01 3.376525828453491925e-85
3.718124999999993463e+01 4.681731924722736119e-85
3.739499999999992497e+01 5.181580156467948414e-85
3.760874999999992951e+01 4.197827230564110204e-85
3.782249999999993406e+01 1.143694887269730201e-85
3.803624999999993861e+01 -4.216189436200932832e-85
3.824999999999994316e+01 -1.146695419735230049e-84
3.846374999999991928e+01 -1.928510712478899660e-84
3.867749999999992383e+01 -2.533449648374842973e-84
3.889124999999992838e+01 -2.644672175860673827e-84
3.910499999999993292e+01 -1.919741531209042814e-84
3.931874999999993747e+01 -9.215622961012862525e-86
3.953249999999994202e+01 2.891319415080602081e-84
3.974624999999991815e+01 6.722755294918141465e-84
3.995999999999992269e+01 1.061860318661916103e-83
4.017374999999992724e+01 1.329774745177532065e-83
4.038749999999993179e+01 1.311505020335126212e-83
4.060124999999993634e+01 8.398284288258566949e-84
4.081499999999994088e+01 -2.003943144942452707e-84
4.102874999999991701e+01 -1.802240976254508180e-83
4.124249999999992156e+01 -3.766100166824653185e-83
4.145624999999992610e+01 -5.651741534309967377e-83
4.166999999999993065e+01 -6.782576399309942211e-83
4.188374999999993520e+01 -6.331457558125537159e-83
4.209749999999993975e+01 -3.507313167374507527e-83
4.231124999999991587e+01 2.160456970045762541e-83
4.252499999999992042e+01 1.047725099949164581e-82
4.273874999999992497e+01 2.025746510858403742e-82
4.295249999999992951e+01 2.913660588794454264e-82
4.316624999999993406e+01 3.366348723541518603e-82
4.337999999999993861e+01 2.980417185495936315e-82
4.359374999999991473e+01 1.392927707856209591e-82
4.380749999999991928e+01 -1.576177061483171129e-82
4.402124999999992383e+01 -5.759611652750544695e-82
4.423499999999992838e+01 -1.049750207363950339e-81
4.444874999999993292e+01 -1.456980707091679176e-81
4.466249999999993747e+01 -1.627266808735909808e-81
4.487624999999991360e+01 -1.369552769222181419e-81
4.508999999999991815e+01 -5.222592815607518011e-82
4.530374999999992269e+01 9.777405384632275543e-82
4.551749999999992724e+01 3.019052101987586025e-81
4.573124999999993179e+01 5.253202650002552433e-81
4.594499999999993634e+01 7.073341917356763409e-81
4.615874999999991246e+01 7.664085604471775408e-81
4.637249999999991701e+01 6.146072727567166932e-81
4.658624999999992156e+01 1.821414156767829978e-81
4.679999999999992610e+01 -5.502753466560477907e-81
4.701374999999993065e+01 -1.517295808078913827e-80
4.722749999999993520e+01 -2.542948630783713426e-80
4.744124999999993975e+01 -3.335533896341321007e-80
4.765499999999991587e+01 -3.516452234397935324e-80
4.786874999999992042e+01 -2.692321180667173048e-80
4.808249999999992497e+01 -5.710605448052954997e-81
4.829624999999992951e+01 2.890944709873940536e-80
4.850999999999993406e+01 7.340290979401153542e-80
4.872374999999993861e+01 1.192271306691000347e-79
4.893749999999991473e+01 1.528067975578358318e-79
4.915124999999991928e+01 1.570754574937575815e-79
4.936499999999992383e+01 1.149353117506248761e-79
4.957874999999992838e+01 1.457306615889523339e-80
4.979249999999993292e+01 -1.440455395305196927e-79
5.000624999999993747e+01 -3.429073424991837308e-79
5.021999999999991360e+01 -5.419845634148279964e-79
5.043374999999991815e+01 -6.800165828702063974e-79
5.064749999999992269e+01 -6.822912138229313504e-79
5.086124999999992724e+01 -4.766731073863789671e-79
5.107499999999993179e+01 -1.721258584978625217e-80
5.128874999999993634e+01 6.880331225846945051e-79
5.150249999999991246e+01 1.551387815545310693e-78
5.171624999999991701e+01 2.391211834890749505e-78
5.192999999999992156e+01 2.939069152453863212e-78
5.214374999999992610e+01 2.877270625763866507e-78
5.235749999999993065e+01 1.910827720173876924e-78
5.257124999999993520e+01 -1.306965599982983324e-79
5.278499999999991132e+01 -3.177466012847921029e-78
5.299874999999991587e+01 -6.818231409038224631e-78
5.321249999999992042e+01 -1.025218785567152883e-77
5.342624999999992497e+01 -1.233542280536644436e-77
5.363999999999992951e+01 -1.175553656124290850e-77
5.385374999999993406e+01 -7.345648408291130894e-78
5.406749999999991019e+01 1.488053788667090275e-78
5.428124999999991473e+01 1.429877262542620604e-77
5.449499999999991928e+01 2.921415630042958582e-77
5.470874999999992383e+01 4.279250527827121781e-77
5.492249999999992838e+01 5.028404282523547516e-77
5.513624999999993292e+01 4.641904731526161852e-77
5.534999999999990905e+01 2.674440500229435820e-77
5.556374999999991360e+01 -1.062632286921542785e-77
5.577749999999991815e+01 -6.317684548767868961e-77
5.599124999999992269e+01 -1.225813603650066883e-76
5.620499999999992724e+01 -1.743653887816490341e-76
5.641874999999993179e+01 -1.992616423646312190e-76
5.663249999999990791e+01 -1.766809287213693582e-76
5.684624999999991246e+01 -9.028116861198984489e-77
5.705999999999991701e+01 6.502803619561342208e-77
5.727374999999992156e+01 2.760675001137345585e-76
5.748749999999992610e+01 5.064774690343915574e-76
5.770124999999993065e+01 6.964277633858230411e-76
5.791499999999990678e+01 7.692852454161711816e-76
5.812874999999991132e+01 6.466007542749959485e-76
5.834249999999991587e+01 2.709167753222340405e-76
5.855624999999992042e+01 -3.667158714970899799e-76
5.876999999999992497e+01 -1.200560662019057617e-75
5.898374999999992951e+01 -2.073931765306677716e-75
5.919749999999990564e+01 -2.742569511936887686e-75
5.941124999999991019e+01 -2.906141757071676292e-75
5.962499999999991473e+01 -2.271950223810041469e-75
5.983874999999991928e+01 -6.471471299961428807e-76
6.005249999999992383e+01 1.954645765136212395e-75
6.026624999999992838e+01 5.217601378238741982e-75
6.047999999999990450e+01 8.473054385985447711e-75
6.069374999999990905e+01 1.073110149708185608e-74
6.090749999999991360e+01 1.082467191859441065e-74
6.112124999999991815e+01 7.676963100926177584e-75
6.133499999999992269e+01 6.711782120729664652e-76
6.154874999999992724e+01 -9.939528356005279536e-75
6.176249999999993179e+01 -2.268612082959441274e-74
6.197624999999990791e+01 -3.473709343575725516e-74
6.218999999999991246e+01 -4.209198975222764504e-74
6.240374999999991701e+01 -4.022160747186936473e-74
6.261749999999992156e+01 -2.517884133679179160e-74
6.283124999999992610e+01 4.925501041564701572e-75
6.304499999999993065e+01 4.834803931970652911e-74
6.325874999999990678e+01 9.846369824284796772e-74
6.347249999999991132e+01 1.433743505724117789e-73
6.368624999999991587e+01 1.669086439400877370e-73
6.389999999999992042e+01 1.513894956593424132e-73
6.411374999999992497e+01 8.220146311245785593e-74
6.432749999999992951e+01 -4.632919877166594314e-74
6.454124999999990564e+01 -2.248537942259028529e-73
6.475499999999991019e+01 -4.244280750792872802e-73
6.496874999999991473e+01 -5.955336956376588024e-73
6.518249999999991928e+01 -6.727268855721990807e-73
6.539624999999992383e+01 -5.862692514885456046e-73
6.560999999999992838e+01 -2.806957313622496215e-73
6.582374999999990450e+01 2.617821086165060715e-73
6.603749999999990905e+01 9.975657833205215799e-73
6.625124999999991360e+01 1.804446860291278508e-72
6.646499999999991815e+01 2.479036692974957594e-72
6.667874999999992269e+01 2.756669751648351614e-72
6.689249999999992724e+01 2.358828178537138010e-72
6.710624999999990337e+01 1.067585030081576895e-72
6.731999999999990791e+01 -1.181477718585232840e-72
6.753374999999991246e+01 -4.205819388169003419e-72
6.774749999999991701e+01 -7.508606616828060910e-72
6.796124999999992156e+01 -1.026934022300160042e-71
6.817499999999992610e+01 -1.142285163405541539e-71
6.838874999999990223e+01 -9.846308241508615954e-72
6.860249999999990678e+01 -4.652453542254707128e-72
6.881624999999991132e+01 4.443662369115738479e-72
6.902999999999991587e+01 1.675344961634213716e-71
6.924374999999992042e+01 3.034180019079654582e-71
6.945749999999992497e+01 4.197579162755318615e-71
6.967124999999990109e+01 4.741421286839813155e-71
6.988499999999990564e+01 4.211746564272105954e-71
7.009874999999991019e+01 2.237724417766246950e-71
7.031249999999991473e+01 -1.325173208268571470e-71
7.052624999999991928e+01 -6.247430195215820075e-71
7.073999999999992383e+01 -1.181198401603520237e-70
7.095374999999989996e+01 -1.678230011295257475e-70
7.116749999999990450e+01 -1.949878372208989908e-70
7.138124999999990905e+01 -1.813661772075943044e-70
7.159499999999991360e+01 -1.112913401124744701e-70
7.180874999999991815e+01 2.282500109258697787e-71
7.202249999999992269e+01 2.146487152554368397e-70
7.223624999999989882e+01 4.391606623425748054e-70
7.244999999999990337e+01 6.507628194912141072e-70
7.266374999999990791e+01 7.860777971439150111e-70
7.287749999999991246e+01 7.728294359762719562e-70
7.309124999999991701e+01 5.451857272334129095e-70
7.330499999999992156e+01 6.438510097922301315e-71
7.351874999999989768e+01 -6.584762562612141814e-70
7.373249999999990223e+01 -1.542597007819945578e-69
7.394624999999990678e+01 -2.427167517847315553e-69
7.415999999999991132e+01 -3.077634789743004418e-69
7.437374999999991587e+01 -3.214306548312758266e-69
7.458749999999992042e+01 -2.565736120658028620e-69
7.480124999999992497e+01 -9.438898374018384312e-70
7.501499999999990109e+01 1.668946292728902051e-69
7.522874999999990564e+01 5.039068771181163119e-69
7.544249999999991019e+01 8.629819959083138887e-69
7.565624999999991473e+01 1.160608697264346001e-68
7.586999999999991928e+01 1.291833564818655062e-68
7.608374999999992383e+01 1.147931917078654902e-68
7.629749999999989996e+01 6.428355820362291163e-69
7.651124999999990450e+01 -2.546738391681853888e-69
7.672499999999990905e+01 -1.488777353292220047e-68
7.693874999999991360e+01 -2.892700040366494687e-68
7.715249999999991815e+01 -4.182768792863575378e-68
7.736624999999992269e+01 -4.979733756713834344e-68
7.757999999999989882e+01 -4.863674235931024387e-68
7.779374999999990337e+01 -3.462973453462784238e-68
7.800749999999990791e+01 -5.694108283014640576e-69
7.822124999999991246e+01 3.738572646947233389e-68
7.843499999999991701e+01 8.992059870547785495e-68
7.864874999999992156e+01 1.428171244496258744e-67
7.886249999999989768e+01 1.829710848806335336e-67
7.907624999999990223e+01 1.948330560221864032e-67
7.928999999999990678e+01 1.632498303016619795e-67
7.950374999999991132e+01 7.741009455244071272e-68
7.971749999999991587e+01 -6.462392385577925943e-68
7.993124999999992042e+01 -2.516789097542950400e-67
8.014499999999989654e+01 -4.567002897030690312e-67
8.035874999999990109e+01 -6.367465796731465128e-67
8.057249999999990564e+01 -7.368998860993617853e-67
8.078624999999991019e+01 -6.987550384489136764e-67
8.099999999999991473e+01 -4.732971664209569761e-67
8.121374999999991928e+01 -3.682273998020540348e-68
8.142749999999989541e+01 5.927376030694309237e-67
8.164124999999989996e+01 1.342915161500667555e-66
8.185499999999990450e+01 2.081765060024300888e-66
8.206874999999990905e+01 2.625354458367726146e-66
8.228249999999991360e+01 2.760932766189916537e-66
8.249624999999991815e+01 2.286559094904294262e-66
8.270999999999989427e+01 1.064295238801528062e-66
8.292374999999989882e+01 -9.203696190270036305e-67
8.313749999999990337e+01 -3.504651830081918041e-66
8.335124999999990791e+01 -6.315355229939577831e-66
8.356499999999991246e+01 -8.772806012172858975e-66
8.377874999999991701e+01 -1.014579230018906132e-65
8.399249999999989313e+01 -9.664834572120600026e-66
8.420624999999989768e+01 -6.690108090177821889e-66
8.441999999999990223e+01 -9.158512842929514869e-67
8.463374999999990678e+01 7.422797282559914611e-66
8.484749999999991132e+01 1.738866119150355938e-65
8.506124999999991587e+01 2.728341252934693757e-65
8.527499999999989200e+01 3.474488952978405328e-65
8.548874999999989654e+01 3.703972064790543853e-65
8.570249999999990109e+01 3.155933912681993925e-65
8.591624999999990564e+01 1.648273708993953626e-65
8.612999999999991019e+01 -8.484263459858309732e-66
8.634374999999991473e+01 -4.143669381693068181e-65
8.655749999999989086e+01 -7.784885118543533126e-65
8.677124999999989541e+01 -1.106001224041148534e-64
8.698499999999989996e+01 -1.306168037702486688e-64
8.719874999999990450e+01 -1.282201505072761280e-64
8.741249999999990905e+01 -9.514121105721592287e-65
8.762624999999991360e+01 -2.699247896613797422e-65
8.783999999999991815e+01 7.420096483938230119e-65
8.805374999999989427e+01 1.979752432062703734e-64
8.826749999999989882e+01 3.245711037101888624e-64
8.848124999999990337e+01 4.258963020129538542e-64
8.869499999999990791e+01 4.687846769299297397e-64
8.890874999999991246e+01 4.206819269533043320e-64
8.912249999999991701e+01 2.573775652358269009e-64
8.933624999999989313e+01 -2.821484670698474854e-65
8.954999999999989768e+01 -4.178494607073872732e-64
8.976374999999990223e+01 -8.624179870346828116e-64
8.997749999999990678e+01 -1.281389338036627668e-63
9.019124999999991132e+01 -1.569239899497479010e-63
9.040499999999991587e+01 -1.610057559842874255e-63
9.061874999999989200e+01 -1.300076526831508411e-63
9.083249999999989654e+01 -5.759908898757814937e-64
9.104624999999990109e+01 5.552412212359069568e-64
9.125999999999990564e+01 1.991350011579085113e-63
9.147374999999991019e+01 3.521976678330924398e-63
9.168749999999991473e+01 4.835704569637936270e-63
9.190124999999989086e+01 5.552748115306076248e-63
9.211499999999989541e+01 5.285490938226761326e-63
9.232874999999989996e+01 3.723537135561421178e-63
9.254249999999990450e+01 7.331065742440589958e-64
9.275624999999990905e+01 -3.546461370335464199e-63
9.296999999999991360e+01 -8.632105656848917174e-63
9.318374999999988972e+01 -1.367803770028297125e-62
9.339749999999989427e+01 -1.753186046276944340e-62
9.361124999999989882e+01 -1.888101645265953151e-62
9.382499999999990337e+01 -1.648989653416316931e-62
9.403874999999990791e+01 -9.507482462452147175e-63
9.425249999999991246e+01 2.198060607516810750e-63
9.446624999999988859e+01 1.774365014353426127e-62
9.467999999999989313e+01 3.505570140095316283e-62
9.489374999999989768e+01 5.089871435728744609e-62
9.510749999999990223e+01 6.117671997084615658e-62
9.532124999999990678e+01 6.153971135121740342e-62
9.553499999999991132e+01 4.826990779001818622e-62
9.574874999999988745e+01 1.935012048143277324e-62
9.596249999999989200e+01 -2.446050997736709227e-62
9.617624999999989654e+01 -7.878367975119214630e-62
9.638999999999990109e+01 -1.352872865595978138e-61
9.660374999999990564e+01 -1.821196858217848807e-61
9.681749999999991019e+01 -2.052945318834934462e-61
9.703124999999988631e+01 -1.910589911240002167e-61
9.724499999999989086e+01 -1.290676821631586828e-61
9.745874999999989541e+01 -1.593816495779981420e-62
9.767249999999989996e+01 1.414759735168299470e-61
9.788624999999990450e+01 3.239345419261211787e-61
9.809999999999990905e+01 4.996723297922063029e-61
9.831374999999988518e+01 6.270284883441129793e-61
9.852749999999988972e+01 6.602459492430555880e-61
9.874124999999989427e+01 5.582715290573447441e-61
9.895499999999989882e+01 2.956487621531010861e-61
9.916874999999990337e+01 -1.262025432186931578e-61
9.938249999999990791e+01 -6.697238127245664665e-61
9.959624999999988404e+01 -1.256779391031965167e-60
9.980999999999988859e+01 -1.771761588086813847e-60
1.000237499999998931e+02 -2.074223565463750628e-60
1.002374999999998977e+02 -2.021579002999123388e-60
1.004512499999999022e+02 -1.500325762173524223e-60
1.006649999999999068e+02 -4.617786628383679355e-61
1.008787499999998829e+02 1.044144054890549297e-60
1.010924999999998875e+02 2.845380409340710337e-60
1.013062499999998920e+02 4.643349225486096445e-60
1.015199999999998965e+02 6.035477916711909526e-60
1.017337499999999011e+02 6.569024326423126292e-60
1.019474999999999056e+02 5.825063229577735559e-60
1.021612499999999102e+02 3.524301230626947722e-60
1.023749999999998863e+02 -3.614694325390493431e-61
1.025887499999998909e+02 -5.515414399433214117e-60
1.028024999999998954e+02 -1.122648216475031524e-59
1.030162499999999000e+02 -1.641172339976669724e-59
1.032299999999999045e+02 -1.973000544932283679e-59
1.034437499999999091e+02 -1.979333291928161677e-59
1.036574999999998852e+02 -1.546211880389198409e-59
1.038712499999998897e+02 -6.187055010208090020e-60
1.040849999999998943e+02 7.663259924759033289e-60
1.042987499999998988e+02 2.456767451735566268e-59
1.045124999999999034e+02 4.179586622937864470e-59
1.047262499999999079e+02 5.560407344007531908e-59
1.049399999999998840e+02 6.172627128082998138e-59
1.051537499999998886e+02 5.615213004047565306e-59
1.053674999999998931e+02 3.611543149547337799e-59
1.055812499999998977e+02 1.142862523112415997e-60
1.057949999999999022e+02 -4.605216576179681635e-59
1.060087499999999068e+02 -9.908513801179728905e-59
1.062224999999998829e+02 -1.480750853884874209e-58
1.064362499999998875e+02 -1.806650032970713757e-58
1.066499999999998920e+02 -1.839482528699757273e-58
1.068637499999998965e+02 -1.471777440458762135e-58
1.070774999999999011e+02 -6.491631521787984956e-59
1.072912499999999056e+02 5.992929853484996404e-59
1.075049999999998818e+02 2.139126588964484511e-58
1.077187499999998863e+02 3.724693107422162687e-58
1.079324999999998909e+02 5.016370672639935788e-58
1.081462499999998954e+02 5.624711186861571486e-58
1.083599999999999000e+02 5.180793992777138090e-58
1.085737499999999045e+02 3.425898191190338098e-58
1.087874999999998806e+02 3.069368264293694036e-59
1.090012499999998852e+02 -3.941792316592210513e-58
1.092149999999998897e+02 -8.753500776699073240e-58
1.094287499999998943e+02 -1.324296349054177093e-57
1.096424999999998988e+02 -1.629660314503297864e-57
1.098562499999999034e+02 -1.674414654309175891e-57
1.100699999999998795e+02 -1.360100913763127923e-57
1.102837499999998840e+02 -6.351091447828726698e-58
1.104974999999998886e+02 4.779566578968505320e-58
1.107112499999998931e+02 1.862244938798539794e-57
1.109249999999998977e+02 3.300891805855043459e-57
1.111387499999999022e+02 4.491607493657750512e-57
1.113524999999998784e+02 5.085199599895547224e-57
1.115662499999998829e+02 4.747488404154173822e-57
1.117799999999998875e+02 3.238681884819362482e-57
1.119937499999998920e+02 4.984136246510873139e-58
1.122074999999998965e+02 -3.280548686422604435e-57
1.124212499999999011e+02 -7.610066675726371387e-57
1.126349999999998772e+02 -1.171573702213491970e-56
1.128487499999998818e+02 -1.461244293950846636e-56
1.130624999999998863e+02 -1.525176350503980818e-56
1.132762499999998909e+02 -1.273255676289968317e-56
1.134899999999998954e+02 -6.549196569113624211e-57
1.137037499999999000e+02 3.164815303806207282e-57
1.139174999999998761e+02 1.545309730518467512e-56
1.141312499999998806e+02 2.847278303749486258e-56
1.143449999999998852e+02 3.960479035548521692e-56
1.145587499999998897e+02 4.577116486358356737e-56
1.147724999999998943e+02 4.395814807520469943e-56
1.149862499999998988e+02 3.189805511248752527e-56
1.151999999999998749e+02 8.812867598631032370e-57
1.154137499999998795e+02 -2.392285581779477882e-56
1.156274999999998840e+02 -6.237107931610746432e-56
1.158412499999998886e+02 -1.000436506689975777e-55
1.160549999999998931e+02 -1.284758129863959071e-55
1.162687499999998977e+02 -1.384179826074813023e-55
1.164824999999999022e+02 -1.215882828270358107e-55
1.166962499999998784e+02 -7.278779549948882310e-56
1.169099999999998829e+02 7.962419408500321399e-57
1.171237499999998875e+02 1.137185326552249347e-55
1.173374999999998920e+02 2.298546789174298517e-55
1.175512499999998965e+02 3.347167402615581529e-55
1.177649999999999011e+02 4.020046973339575763e-55
1.179787499999998772e+02 4.049276040394812997e-55
1.181924999999998818e+02 3.218074464943661284e-55
1.184062499999998863e+02 1.423926099751611777e-55
1.186199999999998909e+02 -1.262473404956310132e-55
1.188337499999998954e+02 -4.556443258186364527e-55
1.190474999999999000e+02 -7.951269292039764921e-55
1.192612499999998761e+02 -1.075505518040258080e-54
1.194749999999998806e+02 -1.217891319630363481e-54
1.196887499999998852e+02 -1.147401118052078761e-54
1.199024999999998897e+02 -8.103783500844222742e-55
1.201162499999998943e+02 -1.925793951174381082e-55
1.203299999999998988e+02 6.652364296597977535e-55
1.205437499999998749e+02 1.658444443646142640e-54
1.207574999999998795e+02 2.620421588398677088e-54
1.209712499999998840e+02 3.338125530922503543e-54
1.211849999999998886e+02 3.582399088934306223e-54
1.213987499999998931e+02 3.151215411498282149e-54
1.216124999999998977e+02 1.920788600752259244e-54
1.218262499999998738e+02 -1.037662067147108386e-55
1.220399999999998784e+02 -2.749030120885416315e-54
1.222537499999998829e+02 -5.656926366502199886e-54
1.224674999999998875e+02 -8.302012741998959775e-54
1.226812499999998920e+02 -1.004922966838774676e-53
1.228949999999998965e+02 -1.025252813234115262e-53
1.231087499999998727e+02 -8.386367095207009201e-54
1.233224999999998772e+02 -4.192727516902123116e-54
1.235362499999998818e+02 2.182279701061787572e-54
1.237499999999998863e+02 1.009390305725459325e-53
1.239637499999998909e+02 1.837893781928948875e-53
1.241774999999998954e+02 2.543759809227651672e-53
1.243912499999998715e+02 2.943111733317094242e-53
1.246049999999998761e+02 2.858933008993129156e-53
1.248187499999998806e+02 2.159790148268326307e-53
1.250324999999998852e+02 8.009157460640740004e-54
1.252462499999998897e+02 -1.140136878176509831e-53
1.254599999999998943e+02 -3.442282450400839485e-53
1.256737499999998704e+02 -5.742879095485548717e-53
1.258874999999998749e+02 -7.569471166710959592e-53
1.261012499999998795e+02 -8.403710623229320677e-53
1.263149999999998840e+02 -7.773954282020417512e-53
1.265287499999998886e+02 -5.366079155240696083e-53