2.024999999999579359e-01 -1.520438325247666146e-106
4.162499999999482725e-01 -1.994000312410683216e-106
6.299999999999528200e-01 -2.070732433546431632e-106
8.437499999999573674e-01 -1.341984276561677521e-106
1.057499999999947704e+00 6.446235310947448820e-107
1.271249999999952252e+00 4.235443128321167690e-106
1.484999999999956799e+00 9.426933146261637091e-106
1.698749999999947136e+00 1.554324507654843947e-105
1.912499999999951683e+00 2.089773544274512975e-105
2.126249999999956231e+00 2.256425072253033244e-105
2.339999999999946567e+00 1.645241166126027564e-105
2.553749999999951115e+00 -2.069207657896252239e-106
2.767499999999955662e+00 -3.676420730574603772e-105
2.981249999999945999e+00 -8.820481181430479835e-105
3.194999999999950546e+00 -1.506625647809466598e-104
3.408749999999955094e+00 -2.087756217053028689e-104
3.622499999999945430e+00 -2.351424120478004742e-104
3.836249999999949978e+00 -1.906304388323812934e-104
4.049999999999954525e+00 -2.966766074571939836e-105
4.263749999999944862e+00 2.872284257814520701e-104
4.477499999999949409e+00 7.723514628665578055e-104
4.691249999999953957e+00 1.382053590648245945e-103
4.904999999999944293e+00 1.985079435589730990e-103
5.118749999999948841e+00 2.337958414244893449e-103
5.332499999999953388e+00 2.083208516939072496e-103
5.546249999999943725e+00 7.906356487280582576e-104
5.759999999999948272e+00 -1.937534147237464135e-103
5.973749999999952820e+00 -6.284187015904163404e-103
6.187499999999943157e+00 -1.196258220319188567e-102
6.401249999999947704e+00 -1.792659920437379772e-102
6.614999999999952252e+00 -2.212799599191369536e-102
6.828749999999942588e+00 -2.145328876798473693e-102
7.042499999999947136e+00 -1.201471873233354207e-102
7.256249999999951683e+00 1.002026653878408666e-102
7.469999999999942020e+00 4.692850234505137655e-102
7.683749999999946567e+00 9.727180907818321075e-102
7.897499999999951115e+00 1.533498004963236084e-101
8.111249999999941451e+00 1.989034352249102730e-101
8.324999999999945999e+00 2.081351658033090373e-101
8.538749999999950546e+00 1.474864710010444351e-101
8.752499999999940883e+00 -1.824558632051681142e-102
8.966249999999945430e+00 -3.142042585049060265e-101
9.179999999999949978e+00 -7.379952114026015527e-101
9.393749999999940314e+00 -1.238228119643277129e-100
9.607499999999944862e+00 -1.693767061166758619e-100
9.821249999999949409e+00 -1.901853681730188728e-100
1.003499999999993975e+01 -1.586505997027341982e-100
1.024874999999994429e+01 -4.402336070432454635e-101
1.046249999999994884e+01 1.789700018130738750e-100
1.067624999999993918e+01 5.166527615409885975e-100
1.088999999999994373e+01 9.391195201642263320e-100
1.110374999999994827e+01 1.362382141877960344e-99
1.131749999999993861e+01 1.635882217747895673e-99
1.153124999999994316e+01 1.543998747740758225e-99
1.174499999999994770e+01 8.318585514809459448e-100
1.195874999999993804e+01 -7.349374418550862576e-100
1.217249999999994259e+01 -3.271685910211495869e-99
1.238624999999994714e+01 -6.641972273431373276e-99
1.259999999999993747e+01 -1.031169297443011801e-98
1.281374999999994202e+01 -1.323064218654900053e-98
1.302749999999994657e+01 -1.380391542351169398e-98
1.324124999999995111e+01 -1.003101087598664198e-98
1.345499999999994145e+01 1.092269393001024400e-100
1.366874999999994600e+01 1.797627843100633403e-98
1.388249999999995055e+01 4.330084960308481677e-98
1.409624999999994088e+01 7.305292639917809314e-98
1.430999999999994543e+01 1.004102330040882245e-97
1.452374999999994998e+01 1.142537773900198400e-97
1.473749999999994031e+01 9.975136619605458547e-98
1.495124999999994486e+01 4.063146598344390685e-98
1.516499999999994941e+01 -7.638268761550739455e-98
1.537874999999993975e+01 -2.548961306926706363e-97
1.559249999999994429e+01 -4.805347166737040225e-97
1.580624999999994884e+01 -7.126092132317417840e-97
1.601999999999993918e+01 -8.785164387316725826e-97
1.623374999999994373e+01 -8.747151878408671498e-97
1.644749999999994827e+01 -5.786739251767515404e-97
1.666124999999993861e+01 1.243151313522094775e-97
1.687499999999994316e+01 1.297706766285505493e-96
1.708874999999994770e+01 2.896144987965804285e-96
1.730249999999993804e+01 4.702657065659333744e-96
1.751624999999994259e+01 6.277439594927765104e-96
1.772999999999994714e+01 6.943087967316959604e-96
1.794374999999993747e+01 5.836606634669838158e-96
1.815749999999994202e+01 2.057972879242457029e-96
1.837124999999994657e+01 -5.065565595308153657e-96
1.858499999999993690e+01 -1.560434662545129085e-95
1.879874999999994145e+01 -2.858417999988521811e-95
1.901249999999994600e+01 -4.157268216713164472e-95
1.922624999999993634e+01 -5.044557631578824189e-95
1.943999999999994088e+01 -4.953030696292732907e-95
1.965374999999994543e+01 -3.233839354912544930e-95
1.986749999999993577e+01 6.945485731163060665e-96
2.008124999999994031e+01 7.117530516520799775e-95
2.029499999999994486e+01 1.573369106777535620e-94
2.050874999999993520e+01 2.535177607797253611e-94
2.072249999999993975e+01 3.366166348228128435e-94
2.093624999999994429e+01 3.719991399116660044e-94
2.114999999999993463e+01 3.164976841109298015e-94
2.136374999999993918e+01 1.260403577569112054e-94
2.157749999999994373e+01 -2.313925500225573273e-94
2.179124999999993406e+01 -7.579678005532806772e-94
2.200499999999993861e+01 -1.405637774496561708e-93
2.221874999999994316e+01 -2.057765866502820939e-93
2.243249999999993349e+01 -2.519619478215589674e-93
2.264624999999993804e+01 -2.526347730948380216e-93
2.285999999999994259e+01 -1.777294126754775081e-93
2.307374999999993292e+01 -3.202283852193728864e-96
2.328749999999993747e+01 2.932845112270409751e-93
2.350124999999994202e+01 6.909490130942979406e-93
2.371499999999993236e+01 1.141788011815799428e-92
2.392874999999993690e+01 1.546550210437253745e-92
2.414249999999994145e+01 1.756234605539605288e-92
2.435624999999993179e+01 1.584504754858124165e-92
2.456999999999993634e+01 8.388556796777008158e-93
2.478374999999994088e+01 -6.269540929126281818e-93
2.499749999999993122e+01 -2.841366161085900742e-92
2.521124999999993577e+01 -5.633433428055718185e-92
2.542499999999994031e+01 -8.558670641518347514e-92
2.563874999999993065e+01 -1.085830563178769662e-91
2.585249999999993520e+01 -1.148395998075303596e-91
2.606624999999993975e+01 -9.220275411284142736e-92
2.627999999999994429e+01 -2.929465572844901562e-92
2.649374999999993463e+01 8.078664598257481923e-92
2.670749999999993918e+01 2.358118460856909692e-91
2.692124999999994373e+01 4.195560840801689229e-91
2.713499999999993406e+01 5.979688910868302557e-91
2.734874999999993861e+01 7.180581860823820669e-91
2.756249999999994316e+01 7.113873545733393201e-91
2.777624999999993349e+01 5.039011797190188394e-91
2.798999999999993804e+01 3.303326928527061750e-92
2.820374999999994259e+01 -7.284113259220106167e-91
2.841749999999993292e+01 -1.744247877985148627e-90
2.863124999999993747e+01 -2.888049566738178475e-90
2.884499999999994202e+01 -3.925353373871694905e-90
2.905874999999993236e+01 -4.514834854154305487e-90
2.927249999999993690e+01 -4.238757499891616440e-90
2.948624999999994145e+01 -2.670874719764689297e-90
2.969999999999993179e+01 5.154917201850738128e-91
2.991374999999993634e+01 5.405581925120598921e-90
3.012749999999994088e+01 1.168622027695087587e-89
3.034124999999993122e+01 1.850635749069944595e-89
3.055499999999993577e+01 2.440058404983183862e-89
3.076874999999994031e+01 2.732889084409700406e-89
3.098249999999993065e+01 2.488423068297599304e-89
3.119624999999993520e+01 1.470379430147424970e-89
3.140999999999993975e+01 -4.912643549917994424e-90
3.162374999999993008e+01 -3.422364549464956166e-89
3.183749999999993463e+01 -7.121553945435394440e-89
3.205124999999993918e+01 -1.108966903652677663e-88
3.226499999999992951e+01 -1.449500543819369451e-88
3.247874999999993406e+01 -1.620063186300966409e-88
3.269249999999993861e+01 -1.487808713605869789e-88
3.290624999999992895e+01 -9.223375932353322240e-89
3.311999999999993349e+01 1.724683722611613166e-89
3.333374999999993804e+01 1.818669790961577176e-88
3.354749999999992838e+01 3.921655397898655122e-88
3.376124999999993292e+01 6.232725014376601559e-88
3.397499999999993747e+01 8.327400814349860441e-88
3.418874999999992781e+01 9.611390164777839384e-88
3.440249999999993236e+01 9.365733296603366101e-88
3.461624999999993690e+01 6.839930579300073670e-88
3.482999999999992724e+01 1.396427131454305866e-88
3.504374999999993179e+01 -7.298262630247314662e-88
3.525749999999993634e+01 -1.905091118313946142e-87
3.547124999999992667e+01 -3.291453409886736426e-87
3.568499999999993122e+01 -4.699667791401328035e-87
3.589874999999993577e+01 -5.835481729688286406e-87
3.611249999999992610e+01 -6.304072408218702889e-87
3.632624999999993065e+01 -5.636199655605484158e-87
3.653999999999993520e+01 -3.342888657998887858e-87
3.675374999999992554e+01 9.955904561393089431e-88
3.696749999999993008e+01 7.603372867226568218e-87
3.718124999999993463e+01 1.634737317981622757e-86
3.739499999999992497e+01 2.655108604503703088e-86
3.760874999999992951e+01 3.680742796685980403e-86
3.782249999999993406e+01 4.483173352530277980e-86
3.803624999999993861e+01 4.741709198717514989e-86
3.824999999999994316e+01 4.057565617238901123e-86
3.846374999999991928e+01 1.996510522012200988e-86
3.867749999999992383e+01 -1.830076508151699678e-86
3.889124999999992838e+01 -7.638745240351102355e-86
3.910499999999993292e+01 -1.530239623033439045e-85
3.931874999999993747e+01 -2.414674481814276490e-85
3.953249999999994202e+01 -3.274694762070219323e-85
3.974624999999991815e+01 -3.878044133080149892e-85
3.995999999999992269e+01 -3.901743063245798201e-85
4.017374999999992724e+01 -2.955068287316472752e-85
4.038749999999993179e+01 -6.371391514448262320e-86
4.060124999999993634e+01 3.362474520425018662e-85
4.081499999999994088e+01 9.118068967342872747e-85
4.102874999999991701e+01 1.628648662918544164e-84
4.124249999999992156e+01 2.391644344245190411e-84
4.145624999999992610e+01 3.029575066151633651e-84
4.166999999999993065e+01 3.290544893578336340e-84
4.188374999999993520e+01 2.856662155098126496e-84
4.209749999999993975e+01 1.386906593597942546e-84
4.231124999999991587e+01 -1.404894027151273090e-84
4.252499999999992042e+01 -5.635374749669315173e-84
4.273874999999992497e+01 -1.110795724000819260e-83
4.295249999999992951e+01 -1.716121951425960460e-83
4.316624999999993406e+01 -2.254643252943421884e-83
4.337999999999993861e+01 -2.538747306382875650e-83
4.359374999999991473e+01 -2.328782693312849205e-83
4.380749999999991928e+01 -1.365008570870437628e-83
4.402124999999992383e+01 5.743934965352167111e-84
4.423499999999992838e+01 3.588617584012384325e-83
4.444874999999993292e+01 7.549240330465809553e-83
4.466249999999993747e+01 1.199103021796794667e-82
4.487624999999991360e+01 1.602597911185370409e-82
4.508999999999991815e+01 1.831879203202677783e-82
4.530374999999992269e+01 1.716904196543628887e-82
4.551749999999992724e+01 1.074399165718657575e-82
4.573124999999993179e+01 -2.508024704275762558e-83
4.594499999999993634e+01 -2.326483107639103483e-82
4.615874999999991246e+01 -5.060927127534167094e-82
4.637249999999991701e+01 -8.129710665561176958e-82
4.658624999999992156e+01 -1.092060791297547462e-81
4.679999999999992610e+01 -1.252258794883057776e-81
4.701374999999993065e+01 -1.178864175150087039e-81
4.722749999999993520e+01 -7.500112874290074020e-82
4.744124999999993975e+01 1.350632541349693340e-82
4.765499999999991587e+01 1.516426825128169960e-81
4.786874999999992042e+01 3.326399675973068348e-81
4.808249999999992497e+01 5.343232971962403734e-81
4.829624999999992951e+01 7.158370022654856083e-81
4.850999999999993406e+01 8.174106152664345750e-81
4.872374999999993861e+01 7.650231476271149137e-81
4.893749999999991473e+01 4.816052379380058740e-81
4.915124999999991928e+01 -9.436849670840024547e-82
4.936499999999992383e+01 -9.835201590430387464e-81
4.957874999999992838e+01 -2.136233670791384403e-80
4.979249999999993292e+01 -3.404816549393577247e-80
5.000624999999993747e+01 -4.525403191355010530e-80
5.021999999999991360e+01 -5.120020350514217816e-80
5.043374999999991815e+01 -4.729890918624927592e-80
5.064749999999992269e+01 -2.889141045341204181e-80
5.086124999999992724e+01 7.573598781071910637e-81
5.107499999999993179e+01 6.297820411868871894e-80
5.128874999999993634e+01 1.337821031346825007e-79
5.150249999999991246e+01 2.104294389568429417e-79
5.171624999999991701e+01 2.764238104942376103e-79
5.192999999999992156e+01 3.086909676109891480e-79
5.214374999999992610e+01 2.798596556135493985e-79
5.235749999999993065e+01 1.629425450010559673e-79
5.257124999999993520e+01 -6.145881937617169927e-80
5.278499999999991132e+01 -3.958911755418014702e-79
5.299874999999991587e+01 -8.159910799697033645e-79
5.321249999999992042e+01 -1.261800806133412811e-78
5.342624999999992497e+01 -1.633471905560723955e-78
5.363999999999992951e+01 -1.794892739832198015e-78
5.385374999999993406e+01 -1.588666518942033541e-78
5.406749999999991019e+01 -8.648058027946634989e-79
5.428124999999991473e+01 4.767452701238351973e-79
5.449499999999991928e+01 2.433162904514525594e-78
5.470874999999992383e+01 4.843314701123237679e-78
5.492249999999992838e+01 7.342747828831618227e-78
5.513624999999993292e+01 9.346293941401337884e-78
5.534999999999990905e+01 1.007767702854761104e-77
5.556374999999991360e+01 8.663880177842699679e-78
5.577749999999991815e+01 4.304954748527710965e-78
5.599124999999992269e+01 -3.483646668018816818e-78
5.620499999999992724e+01 -1.457924547031988618e-77
5.641874999999993179e+01 -2.795857065400717974e-77
5.663249999999990791e+01 -4.147667698951527404e-77
5.684624999999991246e+01 -5.181268139606748849e-77
5.705999999999991701e+01 -5.468436188980646036e-77
5.727374999999992156e+01 -4.541911307329925190e-77
5.748749999999992610e+01 -1.992427801713605602e-77
5.770124999999993065e+01 2.397884235841827260e-77
5.791499999999990678e+01 8.500379226110990293e-77
5.812874999999991132e+01 1.569084455108144568e-76
5.834249999999991587e+01 2.274723210812409879e-76
5.855624999999992042e+01 2.784421678481690419e-76
5.876999999999992497e+01 2.869613142297960000e-76
5.898374999999992951e+01 2.288909770781039413e-76
5.919749999999990564e+01 8.416629501813508123e-77
5.941124999999991019e+01 -1.561077596540924452e-76
5.962499999999991473e+01 -4.817029253340155902e-76
5.983874999999991928e+01 -8.560048341812794735e-76
6.005249999999992383e+01 -1.211605591035941668e-75
6.026624999999992838e+01 -1.451303886491269825e-75
6.047999999999990450e+01 -1.457009737764302261e-75
6.069374999999990905e+01 -1.108343877153909870e-75
6.090749999999991360e+01 -3.112112974352338592e-76
6.112124999999991815e+01 9.657114717856295972e-76
6.133499999999992269e+01 2.651636479104214157e-75
6.154874999999992724e+01 4.539776323169944832e-75
6.176249999999993179e+01 6.270011461931069206e-75
6.197624999999990791e+01 7.340653568337226813e-75
6.218999999999991246e+01 7.160888205577166758e-75
6.240374999999991701e+01 5.151180379231905051e-75
6.261749999999992156e+01 8.907002931445345985e-76
6.283124999999992610e+01 -5.701223010422313832e-75
6.304499999999993065e+01 -1.417738378893548730e-74
6.325874999999990678e+01 -2.341165910226821727e-74
6.347249999999991132e+01 -3.153962545713667362e-74
6.368624999999991587e+01 -3.605021253787182868e-74
6.389999999999992042e+01 -3.407973648970919614e-74
6.411374999999992497e+01 -2.293511909703151250e-74
6.432749999999992951e+01 -8.301010368203918029e-76
6.454124999999990564e+01 3.224157379125006586e-74
6.475499999999991019e+01 7.364214260130089324e-74
6.496874999999991473e+01 1.174493040287444908e-73
6.518249999999991928e+01 1.543021865452254818e-73
6.539624999999992383e+01 1.720047155383816981e-73
6.560999999999992838e+01 1.571030796858178325e-73
6.582374999999990450e+01 9.752127676578605198e-74
6.603749999999990905e+01 -1.387752004566061068e-74
6.625124999999991360e+01 -1.752228249381252180e-73
6.646499999999991815e+01 -3.718020638017367204e-73
6.667874999999992269e+01 -5.734929878636154941e-73
6.689249999999992724e+01 -7.346793830375677491e-73
6.710624999999990337e+01 -7.978406196147121035e-73
6.731999999999990791e+01 -7.016809808187478938e-73
6.753374999999991246e+01 -3.939796240754404199e-73
6.774749999999991701e+01 1.517064701406329097e-73
6.796124999999992156e+01 9.176826955001191411e-73
6.817499999999992610e+01 1.825715156768918930e-72
6.838874999999990223e+01 2.727412265874808001e-72
6.860249999999990678e+01 3.406829156324947825e-72
6.881624999999991132e+01 3.600331217874159131e-72
6.902999999999991587e+01 3.036960454623853877e-72
6.924374999999992042e+01 1.499157512978674501e-72
6.945749999999992497e+01 -1.101218596752371437e-72
6.967124999999990109e+01 -4.642584206036380547e-72
6.988499999999990564e+01 -8.726100472298341573e-72
7.009874999999991019e+01 -1.264273361069052210e-71
7.031249999999991473e+01 -1.539845454175319695e-71
7.052624999999991928e+01 -1.581806186791752385e-71
7.073999999999992383e+01 -1.273880765278420007e-71
7.095374999999989996e+01 -5.288853795989027269e-72
7.116749999999990450e+01 6.776667353840902660e-72
7.138124999999990905e+01 2.273504539403712094e-71
7.159499999999991360e+01 4.062879911580745211e-71
7.180874999999991815e+01 5.716754438870721083e-71
7.202249999999992269e+01 6.789763964922589347e-71
7.223624999999989882e+01 6.771955584894580433e-71
7.244999999999990337e+01 5.178702177079256808e-71
7.266374999999990791e+01 1.674773985588463420e-71
7.287749999999991246e+01 -3.781225386413149507e-71
7.309124999999991701e+01 -1.079671329430954783e-70
7.330499999999992156e+01 -1.844381417527073624e-70
7.351874999999989768e+01 -2.523758757525351446e-70
7.373249999999990223e+01 -2.923388561693364067e-70
7.394624999999990678e+01 -2.827668705892752809e-70
7.415999999999991132e+01 -2.040308585971329752e-70
7.437374999999991587e+01 -4.381083707005044942e-71
7.458749999999992042e+01 1.968630220205478178e-70
7.480124999999992497e+01 4.980140567297356763e-70
7.501499999999990109e+01 8.170536680153128918e-70
7.522874999999990564e+01 1.088730630675994062e-69
7.544249999999991019e+01 1.230272542618919036e-69
7.565624999999991473e+01 1.152779816611651433e-69
7.586999999999991928e+01 7.789484390783191130e-70
7.608374999999992383e+01 6.577350064568247527e-71
7.629749999999989996e+01 -9.708382383030619592e-70
7.651124999999990450e+01 -2.234372154301663801e-69
7.672499999999990905e+01 -3.535143787210992864e-69
7.693874999999991360e+01 -4.593646221570211104e-69
7.715249999999991815e+01 -5.065821717880083690e-69
7.736624999999992269e+01 -4.593811462913884044e-69
7.757999999999989882e+01 -2.881421304476043181e-69
7.779374999999990337e+01 2.124230517134331824e-70
7.800749999999990791e+01 4.575899419424480842e-69
7.822124999999991246e+01 9.762601329265383157e-69
7.843499999999991701e+01 1.495126914582445679e-68
7.864874999999992156e+01 1.897348335950104936e-68
7.886249999999989768e+01 2.043154625976880781e-68
7.907624999999990223e+01 1.791761000141997154e-68
7.928999999999990678e+01 1.032678091144578504e-68
7.950374999999991132e+01 -2.767366111282095425e-69
7.971749999999991587e+01 -2.073365205022278598e-68
7.993124999999992042e+01 -4.158451588305169086e-68
8.014499999999989654e+01 -6.185818968531192412e-68
8.035874999999990109e+01 -7.678317994356373321e-68
8.057249999999990564e+01 -8.080462350863341637e-68
8.078624999999991019e+01 -6.850343516548955952e-68
8.099999999999991473e+01 -3.586362142325701175e-68
8.121374999999991928e+01 1.825326824207562115e-68
8.142749999999989541e+01 9.067166472470364824e-68
8.164124999999989996e+01 1.728400939579051015e-67
8.185499999999990450e+01 2.505337897236303511e-67
8.206874999999990905e+01 3.046993685212039843e-67
8.228249999999991360e+01 3.137173956525198241e-67
8.249624999999991815e+01 2.571542469814490789e-67
8.270999999999989427e+01 1.207718942221574301e-67
8.292374999999989882e+01 -9.780882652597329204e-68
8.313749999999990337e+01 -3.837842819397024836e-67
8.335124999999990791e+01 -7.014996038898160573e-67
8.356499999999991246e+01 -9.939123325271262812e-67
8.377874999999991701e+01 -1.186561689930432157e-66
8.399249999999989313e+01 -1.196968648592291518e-66
8.420624999999989768e+01 -9.495605784185098759e-67
8.441999999999990223e+01 -3.950322943378014040e-67
8.463374999999990678e+01 4.683543562088551600e-67
8.484749999999991132e+01 1.575446024324644219e-66
8.506124999999991587e+01 2.781874075846190233e-66
8.527499999999989200e+01 3.864200645366537479e-66
8.548874999999989654e+01 4.537419333032327746e-66
8.570249999999990109e+01 4.492809498081484481e-66
8.591624999999990564e+01 3.455861966184030567e-66
8.612999999999991019e+01 1.259493948817522726e-66
8.634374999999991473e+01 -2.077435515315713045e-66
8.655749999999989086e+01 -6.281345544127138171e-66
8.677124999999989541e+01 -1.078364751560665526e-65
8.698499999999989996e+01 -1.472878545530588990e-65
8.719874999999990450e+01 -1.704760355064964324e-65
8.741249999999990905e+01 -1.660542029482840737e-65
8.762624999999991360e+01 -1.242159735975921268e-65
8.783999999999991815e+01 -3.940663285323753747e-66
8.805374999999989427e+01 8.683761342887391730e-66
8.826749999999989882e+01 2.434860420444415447e-65
8.848124999999990337e+01 4.087305513957851946e-65
8.869499999999990791e+01 5.505282413642890249e-65
8.890874999999991246e+01 6.295491513863478059e-65
8.912249999999991701e+01 6.048115598401076779e-65
8.933624999999989313e+01 4.418166794216044340e-65
8.954999999999989768e+01 1.223868659204856117e-65
8.976374999999990223e+01 -3.452542054445162275e-65
8.997749999999990678e+01 -9.182232367845629297e-65
9.019124999999991132e+01 -1.514990657285483101e-64
9.040499999999991587e+01 -2.018121467473683634e-64
9.061874999999989200e+01 -2.285682777495383867e-64
9.083249999999989654e+01 -2.172134079610878425e-64
9.104624999999990109e+01 -1.557801581676939700e-64
9.125999999999990564e+01 -3.838785974065562799e-65
9.147374999999991019e+01 1.312413950925127437e-64
9.168749999999991473e+01 3.369892878445043070e-64
9.190124999999989086e+01 5.491286641998610916e-64
9.211499999999989541e+01 7.255317849099849852e-64
9.232874999999989996e+01 8.159366217787455040e-64
9.254249999999990450e+01 7.694965837608015333e-64
9.275624999999990905e+01 5.452292756835362003e-64
9.296999999999991360e+01 1.242290336061579081e-64
9.318374999999988972e+01 -4.782766164925765450e-64
9.339749999999989427e+01 -1.203611547384196886e-63
9.361124999999989882e+01 -1.946024072089482046e-63
9.382499999999990337e+01 -2.557570338832560596e-63
9.403874999999990791e+01 -2.863567558324054994e-63
9.425249999999991246e+01 -2.689208835995263915e-63
9.446624999999988859e+01 -1.895813720890907921e-63
9.467999999999989313e+01 -4.226323099600313747e-64
9.489374999999989768e+01 1.672495851702217952e-63
9.510749999999990223e+01 4.182478807782187235e-63
9.532124999999990678e+01 6.740229826056200190e-63
9.553499999999991132e+01 8.837161446232965166e-63
9.574874999999988745e+01 9.877473467605440871e-63
9.596249999999989200e+01 9.269701785561928713e-63
9.617624999999989654e+01 6.549810149894049320e-63
9.638999999999990109e+01 1.521584112379577783e-63
9.660374999999990564e+01 -5.608477088223736989e-63
9.681749999999991019e+01 -1.413142271645241261e-62
9.703124999999988631e+01 -2.280404058607345661e-62
9.724499999999989086e+01 -2.991520937103641274e-62
9.745874999999989541e+01 -3.347101321245621959e-62
9.767249999999989996e+01 -3.150202500708012339e-62
9.788624999999990450e+01 -2.247234494981612772e-62
9.809999999999990905e+01 -5.742150187174773348e-63
9.831374999999988518e+01 1.799199826520958546e-62
9.852749999999988972e+01 4.637629292761113071e-62
9.874124999999989427e+01 7.530440059516094534e-62
9.895499999999989882e+01 9.914426040750641714e-62
9.916874999999990337e+01 1.113509006319227206e-61
9.938249999999990791e+01 1.054726492544558908e-61
9.959624999999988404e+01 7.648095158511221390e-62
9.980999999999988859e+01 2.226500757266207635e-62
1.000237499999998931e+02 -5.495430689410775693e-62
1.002374999999998977e+02 -1.476029377108424772e-61
1.004512499999999022e+02 -2.424616127657534577e-61
1.006649999999999068e+02 -3.214061369481263128e-61
1.008787499999998829e+02 -3.633763919146862025e-61
1.010924999999998875e+02 -3.475891473137407340e-61
1.013062499999998920e+02 -2.577656237464017672e-61
1.015199999999998965e+02 -8.686609774304305169e-62
1.017337499999999011e+02 1.584446496116666707e-61
1.019474999999999056e+02 4.545784195710351417e-61
1.021612499999999102e+02 7.601002723192986978e-61
1.023749999999998863e+02 1.018035636378847885e-60
1.025887499999998909e+02 1.162005224562110569e-60
1.028024999999998954e+02 1.126219633317084394e-60
1.030162499999999000e+02 8.586112033550517935e-61
1.032299999999999045e+02 3.355270364733992859e-61
1.034437499999999091e+02 -4.244082771487458211e-61
1.036574999999998852e+02 -1.350254770304927922e-60
1.038712499999998897e+02 -2.315742590835053911e-60
1.040849999999998943e+02 -3.146117514984197176e-60
1.042987499999998988e+02 -3.636648058759402455e-60
1.045124999999999034e+02 -3.582879688188353660e-60
1.047262499999999079e+02 -2.820448686169753863e-60
1.049399999999998840e+02 -1.269711063325303969e-60
1.051537499999998886e+02 1.021986168752188957e-60
1.053674999999998931e+02 3.849347032934501694e-60
1.055812499999998977e+02 6.839026871645006857e-60
1.057949999999999022e+02 9.468847909624252543e-60
1.060087499999999068e+02 1.112171856422194397e-59
1.062224999999998829e+02 1.117458660629479450e-59
1.064362499999998875e+02 9.116084328356870857e-60
1.066499999999998920e+02 4.679042960571083560e-60
1.068637499999998965e+02 -2.033031288401979426e-60
1.070774999999999011e+02 -1.045162517577547859e-59
1.072912499999999056e+02 -1.950887499717278634e-59
1.075049999999998818e+02 -2.768796427512502823e-59
1.077187499999998863e+02 -3.317424463248559357e-59
1.079324999999998909e+02 -3.410861039294206386e-59
1.081462499999998954e+02 -2.892561508574627745e-59
1.083599999999999000e+02 -1.673747808717258150e-59
1.085737499999999045e+02 2.295102394506808074e-60
1.087874999999998806e+02 2.667935183510252800e-59
1.090012499999998852e+02 5.347331438102559724e-59
1.092149999999998897e+02 7.840628002880495719e-59
1.094287499999998943e+02 9.628371872043724728e-59
1.096424999999998988e+02 1.016838082891103823e-58
1.098562499999999034e+02 8.989994149538525116e-59
1.100699999999998795e+02 5.802437131371918603e-59
1.102837499999998840e+02 6.011702251520965285e-60
1.104974999999998886e+02 -6.248135165516494831e-59
1.107112499999998931e+02 -1.396997352066363412e-58
1.109249999999998977e+02 -2.140369534182914371e-58
1.111387499999999022e+02 -2.710617615620789293e-58
1.113524999999998784e+02 -2.953554619742524015e-58
1.115662499999998829e+02 -2.730497457447865840e-58
1.117799999999998875e+02 -1.947955963082310235e-58
1.119937499999998920e+02 -5.874022194587117033e-59
1.122074999999998965e+02 1.270287960534883168e-58
1.124212499999999011e+02 3.431636672158863796e-58
1.126349999999998772e+02 5.594087734061212453e-58
1.128487499999998818e+02 7.370180614790027126e-58
1.130624999999998863e+02 8.333623957093995377e-58
1.132762499999998909e+02 8.084902593569978061e-58
1.134899999999998954e+02 6.329909268079948864e-58
1.137037499999999000e+02 2.961033743317474242e-58
1.139174999999998761e+02 -1.873080229482069055e-58
1.141312499999998806e+02 -7.724493264924850048e-58
1.143449999999998852e+02 -1.384429319934024812e-57
1.145587499999998897e+02 -1.923341269758873027e-57
1.147724999999998943e+02 -2.275069381559182105e-57
1.149862499999998988e+02 -2.327412954609594737e-57
1.151999999999998749e+02 -1.990089392032637242e-57
1.154137499999998795e+02 -1.216139712812660227e-57
1.156274999999998840e+02 -2.139637833508726616e-59
1.158412499999998886e+02 1.501825396155582963e-57
1.160549999999998931e+02 3.180612040291205662e-57
1.162687499999998977e+02 4.770012566866241778e-57
1.164824999999999022e+02 5.975984528369800822e-57
1.166962499999998784e+02 6.492421976443496228e-57
1.169099999999998829e+02 6.049527998861824639e-57
1.171237499999998875e+02 4.468247650836696326e-57
1.173374999999998920e+02 1.713215061202313684e-57
1.175512499999998965e+02 -2.064873211769537202e-57
1.177649999999999011e+02 -6.506957546530582011e-57
1.179787499999998772e+02 -1.105185359613782981e-56
1.181924999999998818e+02 -1.497687307710215076e-56
1.184062499999998863e+02 -1.747453369380296562e-56
1.186199999999998909e+02 -1.776174241520436770e-56
1.188337499999998954e+02 -1.521190457843411163e-56
1.190474999999999000e+02 -9.494651612190469684e-57
1.192612499999998761e+02 -7.031979501356330946e-58
1.194749999999998806e+02 1.055334910841738277e-56
1.196887499999998852e+02 2.311529329644225615e-56
1.199024999999998897e+02 3.531437511425631562e-56
1.201162499999998943e+02 4.510463015844944387e-56
1.203299999999998988e+02 5.028391047141291684e-56
1.205437499999998749e+02 4.879507371374747082e-56
1.207574999999998795e+02 3.908167819288415000e-56
1.209712499999998840e+02 2.045911590587644024e-56
1.211849999999998886e+02 -6.549645972792367393e-57
1.213987499999998931e+02 -3.997215438526581914e-56
1.216124999999998977e+02 -7.629834213588632712e-56
1.218262499999998738e+02 -1.105998775953118014e-55
1.220399999999998784e+02 -1.368954952829149516e-55
1.222537499999998829e+02 -1.487762623472574878e-55
1.224674999999998875e+02 -1.402714178761110285e-55
1.226812499999998920e+02 -1.068951730052984509e-55
1.228949999999998965e+02 -4.677098806565376606e-56
1.231087499999998727e+02 3.831274819407919801e-56
1.233224999999998772e+02 1.420965623962873328e-55
1.235362499999998818e+02 2.534935757221242942e-55
1.237499999999998863e+02 3.568789223519646063e-55
1.239637499999998909e+02 4.331847381668266881e-55
1.241774999999998954e+02 4.618869251579337052e-55
1.243912499999998715e+02 4.238566847944848760e-55
1.246049999999998761e+02 3.049008614233242382e-55
1.248187499999998806e+02 9.964200150724727777e-56
1.250324999999998852e+02 -1.847878596136114664e-55
1.252462499999998897e+02 -5.259171024007257081e-55
1.254599999999998943e+02 -8.847353205927878785e-55
1.256737499999998704e+02 -1.206881199228897658e-54
1.258874999999998749e+02 -1.426826007416920365e-54
1.261012499999998795e+02 -1.475352601365447756e-54
1.263149999999998840e+02 -1.290156594363515300e-54
1.265287499999998886e+02 -8.287844176428814603e-55