2.024999999999579359e-01 -1.768731793113368784e-94
4.162499999999482725e-01 -1.652469396879315300e-94
6.299999999999528200e-01 -8.218061320513737637e-95
8.437499999999573674e-01 1.001727288715952538e-94
1.057499999999947704e+00 3.952981743737782429e-94
1.271249999999952252e+00 7.855519998495176360e-94
1.484999999999956799e+00 1.203491711664249111e-93
1.698749999999947136e+00 1.516783985037297124e-93
1.912499999999951683e+00 1.525212783376497096e-93
2.126249999999956231e+00 9.805640724147781020e-94
2.339999999999946567e+00 -3.598399786902726330e-94
2.553749999999951115e+00 -2.639219890646738954e-93
2.767499999999955662e+00 -5.770007593187853214e-93
2.981249999999945999e+00 -9.284276151224982395e-93
3.194999999999950546e+00 -1.220677983314418787e-92
3.408749999999955094e+00 -1.301481004286127759e-92
3.622499999999945430e+00 -9.766758265785260488e-93
3.836249999999949978e+00 -4.824282228090225068e-94
4.049999999999954525e+00 1.617027004229763620e-92
4.263749999999944862e+00 3.989759534257230300e-92
4.477499999999949409e+00 6.764394983569682789e-92
4.691249999999953957e+00 9.258791141318807123e-92
4.904999999999944293e+00 1.037313998399543518e-91
5.118749999999948841e+00 8.667473547832254790e-92
5.332499999999953388e+00 2.618642754339692030e-92
5.546249999999943725e+00 -8.901423238780064377e-92
5.759999999999948272e+00 -2.593249459905043953e-91
5.973749999999952820e+00 -4.660538432490196280e-91
6.187499999999943157e+00 -6.639080255401065841e-91
6.401249999999947704e+00 -7.773378695149189879e-91
6.614999999999952252e+00 -7.048329478238274314e-91
6.828749999999942588e+00 -3.354289329553848430e-91
7.042499999999947136e+00 4.195344508765517140e-91
7.256249999999951683e+00 1.579524259017059415e-90
7.469999999999942020e+00 3.038283891172377131e-90
7.683749999999946567e+00 4.510415186574326498e-90
7.897499999999951115e+00 5.501781907748000306e-90
8.111249999999941451e+00 5.330803722964263966e-90
8.324999999999945999e+00 3.229150825704203340e-90
8.538749999999950546e+00 -1.457052610920800455e-90
8.752499999999940883e+00 -8.964226094008829877e-90
8.966249999999945430e+00 -1.873921997350978307e-89
9.179999999999949978e+00 -2.907698062923279587e-89
9.393749999999940314e+00 -3.689784243291297796e-89
9.607499999999944862e+00 -3.783584846649892759e-89
9.821249999999949409e+00 -2.682110018321064685e-89
1.003499999999993975e+01 7.034211540366414194e-91
1.024874999999994429e+01 4.690888502560121463e-89
1.046249999999994884e+01 1.092357737325625707e-88
1.067624999999993918e+01 1.780434262372520804e-88
1.088999999999994373e+01 2.350339846853847276e-88
1.110374999999994827e+01 2.534922022808282673e-88
1.131749999999993861e+01 2.014696993085746696e-88
1.153124999999994316e+01 4.881140015648139873e-89
1.174499999999994770e+01 -2.217584085915904044e-88
1.195874999999993804e+01 -6.004701628055340588e-88
1.217249999999994259e+01 -1.035896819123539295e-87
1.238624999999994714e+01 -1.424389010200184516e-87
1.259999999999993747e+01 -1.609638153438805599e-87
1.281374999999994202e+01 -1.399065431196594936e-87
1.302749999999994657e+01 -6.025597479679490591e-88
1.324124999999995111e+01 9.046374444302995727e-88
1.345499999999994145e+01 3.099783296656521620e-87
1.366874999999994600e+01 5.725437254570984120e-87
1.388249999999995055e+01 8.222065550618984833e-87
1.409624999999994088e+01 9.714600298067676483e-87
1.430999999999994543e+01 9.091254848720199656e-87
1.452374999999994998e+01 5.207339469837572730e-87
1.473749999999994031e+01 -2.772680317055618191e-87
1.495124999999994486e+01 -1.491746121998740720e-86
1.516499999999994941e+01 -3.002872065086023943e-86
1.537874999999993975e+01 -4.523081814248396440e-86
1.559249999999994429e+01 -5.583471240448320742e-86
1.580624999999994884e+01 -5.568753848823867858e-86
1.601999999999993918e+01 -3.819500502680021172e-86
1.623374999999994373e+01 1.893771165756837621e-87
1.644749999999994827e+01 6.603406598324373565e-86
1.666124999999993861e+01 1.491271019215481642e-85
1.687499999999994316e+01 2.371291080145188037e-85
1.708874999999994770e+01 3.059908153198998748e-85
1.730249999999993804e+01 3.230518227236559235e-85
1.751624999999994259e+01 2.519222340836784936e-85
1.772999999999994714e+01 6.141748309705585946e-86
1.794374999999993747e+01 -2.618040390776083659e-85
1.815749999999994202e+01 -6.985968873363078639e-85
1.837124999999994657e+01 -1.183984996436787843e-84
1.858499999999993690e+01 -1.599958630929913142e-84
1.879874999999994145e+01 -1.780190759444444654e-84
1.901249999999994600e+01 -1.532165516534465269e-84
1.922624999999993634e+01 -6.800827437337711230e-85
1.943999999999994088e+01 8.724743736850242833e-85
1.965374999999994543e+01 3.067696616580047349e-84
1.986749999999993577e+01 5.622142599481638258e-84
2.008124999999994031e+01 7.982237664606037513e-84
2.029499999999994486e+01 9.335360358349713145e-84
2.050874999999993520e+01 8.704703579531655603e-84
2.072249999999993975e+01 5.146835781528019378e-84
2.093624999999994429e+01 -1.949254788357023425e-84
2.114999999999993463e+01 -1.249388179351310324e-83
2.136374999999993918e+01 -2.533005340010509840e-83
2.157749999999994373e+01 -3.797835758229246934e-83
2.179124999999993406e+01 -4.663084065263331728e-83
2.200499999999993861e+01 -4.653337139442256978e-83
2.221874999999994316e+01 -3.285761131069565052e-83
2.243249999999993349e+01 -2.074340780218126669e-84
2.264624999999993804e+01 4.630169844829286338e-83
2.285999999999994259e+01 1.079054368040545224e-82
2.307374999999993292e+01 1.721498096423914528e-82
2.328749999999993747e+01 2.219255448906572907e-82
2.350124999999994202e+01 2.350379695990268389e-82
2.371499999999993236e+01 1.878951781943373305e-82
2.392874999999993690e+01 6.157908516802263133e-83
2.414249999999994145e+01 -1.501942340291732754e-82
2.435624999999993179e+01 -4.325309763376564048e-82
2.456999999999993634e+01 -7.423996738272281485e-82
2.478374999999994088e+01 -1.006104518316789177e-81
2.499749999999993122e+01 -1.124253493930425763e-81
2.521124999999993577e+01 -9.867158428312072746e-82
2.542499999999994031e+01 -4.984766025967074729e-82
2.563874999999993065e+01 3.853787080537651120e-82
2.585249999999993520e+01 1.620864772836954176e-81
2.606624999999993975e+01 3.041641609699206145e-81
2.627999999999994429e+01 4.343239110684367666e-81
2.649374999999993463e+01 5.098541943599374571e-81
2.670749999999993918e+01 4.816084884164864265e-81
2.692124999999994373e+01 3.046318182487143641e-81
2.713499999999993406e+01 -4.701164869855785371e-82
2.734874999999993861e+01 -5.633092872027922201e-81
2.756249999999994316e+01 -1.183027415544761734e-80
2.777624999999993349e+01 -1.785269091812220149e-80
2.798999999999993804e+01 -2.193677625808442118e-80
2.820374999999994259e+01 -2.198397598134669149e-80
2.841749999999993292e+01 -1.598387805027111578e-80
2.863124999999993747e+01 -2.621706256006933242e-81
2.884499999999994202e+01 1.801092927044932257e-80
2.905874999999993236e+01 4.375248393892519315e-80
2.927249999999993690e+01 6.996608536861019222e-80
2.948624999999994145e+01 8.963316191587333182e-80
2.969999999999993179e+01 9.416270597005032041e-80
2.991374999999993634e+01 7.503480407028260656e-80
3.012749999999994088e+01 2.621746804656396116e-80
3.034124999999993122e+01 -5.295364020405968187e-80
3.055499999999993577e+01 -1.550246398093809358e-79
3.076874999999994031e+01 -2.626426638039472458e-79
3.098249999999993065e+01 -3.487136751624699467e-79
3.119624999999993520e+01 -3.793802583791907852e-79
3.140999999999993975e+01 -3.203189678941287136e-79
3.162374999999993008e+01 -1.461485493925470795e-79
3.183749999999993463e+01 1.482475417748914193e-79
3.205124999999993918e+01 5.367981392340645089e-79
3.226499999999992951e+01 9.550211261921835588e-79
3.247874999999993406e+01 1.300308244490583416e-78
3.269249999999993861e+01 1.443179665032925446e-78
3.290624999999992895e+01 1.251459561353144247e-78
3.311999999999993349e+01 6.265295491729439703e-79
3.333374999999993804e+01 -4.530658773785550929e-79
3.354749999999992838e+01 -1.889752490658666886e-78
3.376124999999993292e+01 -3.439696801165837739e-78
3.397499999999993747e+01 -4.714988280829714325e-78
3.418874999999992781e+01 -5.228476841528628346e-78
3.440249999999993236e+01 -4.488383132923863036e-78
3.461624999999993690e+01 -2.138661662448770247e-78
3.482999999999992724e+01 1.874201716210363230e-78
3.504374999999993179e+01 7.144253525790318000e-78
3.525749999999993634e+01 1.270977305764401618e-77
3.547124999999992667e+01 1.707490273061783519e-77
3.568499999999993122e+01 1.839928399285419113e-77
3.589874999999993577e+01 1.488028658755399753e-77
3.611249999999992610e+01 5.307303235202072917e-78
3.632624999999993065e+01 -1.029339525024610102e-77
3.653999999999993520e+01 -3.007130390269754682e-77
3.675374999999992554e+01 -5.002506082055227442e-77
3.696749999999993008e+01 -6.416168501968636947e-77
3.718124999999993463e+01 -6.533259575396664754e-77
3.739499999999992497e+01 -4.682956390980753226e-77
3.760874999999992951e+01 -4.638073304573270402e-78
3.782249999999993406e+01 6.000148988919722857e-77
3.803624999999993861e+01 1.383400735481153735e-76
3.824999999999994316e+01 2.130037696980431620e-76
3.846374999999991928e+01 2.589207197456982023e-76
3.867749999999992383e+01 2.470408992040469706e-76
3.889124999999992838e+01 1.511427334229996234e-76
3.910499999999993292e+01 -4.275044098488991773e-77
3.931874999999993747e+01 -3.258370693976613935e-76
3.953249999999994202e+01 -6.574647050542956164e-76
3.974624999999991815e+01 -9.609640411296689828e-76
3.995999999999992269e+01 -1.128125974541422413e-75
4.017374999999992724e+01 -1.035396199153053705e-75
4.038749999999993179e+01 -5.729658757028650468e-76
4.060124999999993634e+01 3.152564629354861475e-76
4.081499999999994088e+01 1.587015782894507555e-75
4.102874999999991701e+01 3.063157781800227932e-75
4.124249999999992156e+01 4.409539472071984358e-75
4.145624999999992610e+01 5.155105130230936609e-75
4.166999999999993065e+01 4.759263812338624339e-75
4.188374999999993520e+01 2.734067511286129813e-75
4.209749999999993975e+01 -1.186345010996427341e-75
4.231124999999991587e+01 -6.853949059228469612e-75
4.252499999999992042e+01 -1.353649491670547049e-74
4.273874999999992497e+01 -1.982825247764409509e-74
4.295249999999992951e+01 -2.370815954313644901e-74
4.316624999999993406e+01 -2.280289900424008003e-74
4.337999999999993861e+01 -1.488302319178497799e-74
4.359374999999991473e+01 1.431589167914085648e-75
4.380749999999991928e+01 2.585131549052559230e-74
4.402124999999992383e+01 5.565464684577546361e-74
4.423499999999992838e+01 8.522657842632973476e-74
4.444874999999993292e+01 1.061749615619176127e-73
4.466249999999993747e+01 1.082774083210822161e-73
4.487624999999991360e+01 8.140442167135702742e-74
4.508999999999991815e+01 1.836548883704587823e-74
4.530374999999992269e+01 -8.165537067392759618e-74
4.551749999999992724e+01 -2.097314868880977406e-73
4.573124999999993179e+01 -3.448480950555199769e-73
4.594499999999993634e+01 -4.537146021419418792e-73
4.615874999999991246e+01 -4.938255220094421474e-73
4.637249999999991701e+01 -4.204992506956634267e-73
4.658624999999992156e+01 -1.978928940318640128e-73
4.679999999999992610e+01 1.870841602791060021e-73
4.701374999999993065e+01 7.103259797125183277e-73
4.722749999999993520e+01 1.299181604554090718e-72
4.744124999999993975e+01 1.828701383139098091e-72
4.765499999999991587e+01 2.130050810987330392e-72
4.786874999999992042e+01 2.014550348102807733e-72
4.808249999999992497e+01 1.314248062020214605e-72
4.829624999999992951e+01 -6.403701864031516950e-74
4.850999999999993406e+01 -2.079242481318144575e-72
4.872374999999993861e+01 -4.504332640561078976e-72
4.893749999999991473e+01 -6.899473818286769716e-72
4.915124999999991928e+01 -8.628559933414140533e-72
4.936499999999992383e+01 -8.934547572959052834e-72
4.957874999999992838e+01 -7.080671331523495256e-72
4.979249999999993292e+01 -2.550599943733158315e-72
5.000624999999993747e+01 4.717880094349624875e-72
5.021999999999991360e+01 1.411116324399696417e-71
5.043374999999991815e+01 2.419281498553015042e-71
5.064749999999992269e+01 3.270250995726218643e-71
5.086124999999992724e+01 3.676604527771355079e-71
5.107499999999993179e+01 3.335590281191367176e-71
5.128874999999993634e+01 1.999476267848444013e-71
5.150249999999991246e+01 -4.371292710474912615e-72
5.171624999999991701e+01 -3.847854841657878388e-71
5.192999999999992156e+01 -7.804903421077992895e-71
5.214374999999992610e+01 -1.155543882775646928e-70
5.235749999999993065e+01 -1.406992487030614418e-70
5.257124999999993520e+01 -1.418117350935349364e-70
5.278499999999991132e+01 -1.081789111167331004e-70
5.299874999999991587e+01 -3.314221340212074800e-71
5.321249999999992042e+01 8.250258760769452899e-71
5.342624999999992497e+01 2.275256574044258026e-70
5.363999999999992951e+01 3.786279446737017812e-70
5.385374999999993406e+01 5.011252321204715193e-70
5.406749999999991019e+01 5.527522118512607586e-70
5.428124999999991473e+01 4.909404548453657522e-70
5.449499999999991928e+01 2.832036876836262197e-70
5.470874999999992383e+01 -8.066179947544403102e-71
5.492249999999992838e+01 -5.768366328789612660e-70
5.513624999999993292e+01 -1.139290406456293086e-69
5.534999999999990905e+01 -1.658620253792107971e-69
5.556374999999991360e+01 -1.991063182276528499e-69
5.577749999999991815e+01 -1.979590724484923870e-69
5.599124999999992269e+01 -1.486785437895413010e-69
5.620499999999992724e+01 -4.361793028038371972e-70
5.641874999999993179e+01 1.144671052850772532e-69
5.663249999999990791e+01 3.089199500917906224e-69
5.684624999999991246e+01 5.076677243848427446e-69
5.705999999999991701e+01 6.648420099081200662e-69
5.727374999999992156e+01 7.263765343186493459e-69
5.748749999999992610e+01 6.397832829143491087e-69
5.770124999999993065e+01 3.673711947946353596e-69
5.791499999999990678e+01 -9.894934997434187316e-70
5.812874999999991132e+01 -7.242344057631480519e-69
5.834249999999991587e+01 -1.422210391276447005e-68
5.855624999999992042e+01 -2.056078325897547419e-68
5.876999999999992497e+01 -2.451699499895200952e-68
5.898374999999992951e+01 -2.424708427751138159e-68
5.919749999999990564e+01 -1.820335932969975648e-68
5.941124999999991019e+01 -5.612180543811635658e-69
5.962499999999991473e+01 1.305214768497069795e-68
5.983874999999991928e+01 3.571205078179870085e-68
6.005249999999992383e+01 5.857839366187864073e-68
6.026624999999992838e+01 7.640622140394336568e-68
6.047999999999990450e+01 8.318785569557174884e-68
6.069374999999990905e+01 7.327953929800036232e-68
6.090749999999991360e+01 4.285355982870344215e-68
6.112124999999991815e+01 -8.548457334269525467e-69
6.133499999999992269e+01 -7.669014613810650578e-68
6.154874999999992724e+01 -1.519360859283164228e-67
6.176249999999993179e+01 -2.195555501167093057e-67
6.197624999999990791e+01 -2.613212365770532923e-67
6.218999999999991246e+01 -2.584867023138705187e-67
6.240374999999991701e+01 -1.959319274347764437e-67
6.261749999999992156e+01 -6.691900385047884703e-68
6.283124999999992610e+01 1.224368008778903279e-67
6.304499999999993065e+01 3.501180764200611722e-67
6.325874999999990678e+01 5.777749098479971575e-67
6.347249999999991132e+01 7.539082574066468870e-67
6.368624999999991587e+01 8.211592466302733910e-67
6.389999999999992042e+01 7.274085300594705175e-67
6.411374999999992497e+01 4.394059607113773152e-67
6.432749999999992951e+01 -4.336317287633620237e-68
6.454124999999990564e+01 -6.776854504117341623e-67
6.475499999999991019e+01 -1.371972189195089482e-66
6.496874999999991473e+01 -1.991103288516660500e-66
6.518249999999991928e+01 -2.372743673371910803e-66
6.539624999999992383e+01 -2.355113048480645370e-66
6.560999999999992838e+01 -1.813548590027194049e-66
6.582374999999990450e+01 -7.003297637454365399e-67
6.603749999999990905e+01 9.202692393945244930e-67
6.625124999999991360e+01 2.851171422612571528e-66
6.646499999999991815e+01 4.765106197054102313e-66
6.667874999999992269e+01 6.237299965706291648e-66
6.689249999999992724e+01 6.810090718954691199e-66
6.710624999999990337e+01 6.084582934579757850e-66
6.731999999999990791e+01 3.826807627137979899e-66
6.753374999999991246e+01 6.877232500896764397e-68
6.774749999999991701e+01 -4.819905620477150140e-66
6.796124999999992156e+01 -1.011458598077839543e-65
6.817499999999992610e+01 -1.479215604208224930e-65
6.838874999999990223e+01 -1.767020551913294976e-65
6.860249999999990678e+01 -1.762119606867877888e-65
6.881624999999991132e+01 -1.383477169837350918e-65
6.902999999999991587e+01 -6.082829746038139492e-66
6.924374999999992042e+01 5.071340774919597693e-66
6.945749999999992497e+01 1.818206124988839208e-65
6.967124999999990109e+01 3.100075321743824534e-65
6.988499999999990564e+01 4.075360520392462908e-65
7.009874999999991019e+01 4.460734189066596882e-65
7.031249999999991473e+01 4.026743482657433819e-65
7.052624999999991928e+01 2.660830638369499574e-65
7.073999999999992383e+01 4.201898439076106362e-66
7.095374999999989996e+01 -2.439961320680611695e-65
7.116749999999990450e+01 -5.475065709210843845e-65
7.138124999999990905e+01 -8.103744251173048783e-65
7.159499999999991360e+01 -9.702518168123902425e-65
7.180874999999991815e+01 -9.730859705554778589e-65
7.202249999999992269e+01 -7.864760192240886693e-65
7.223624999999989882e+01 -4.109904324082003571e-65
7.244999999999990337e+01 1.136235878407957681e-65
7.266374999999990791e+01 7.098714409967286266e-65
7.287749999999991246e+01 1.272818835525568016e-64
7.309124999999991701e+01 1.688589266092560799e-64
7.330499999999992156e+01 1.858153302987433400e-64
7.351874999999989768e+01 1.721516399146134913e-64
7.373249999999990223e+01 1.276221368496229610e-64
7.394624999999990678e+01 5.842346931253265740e-65
7.415999999999991132e+01 -2.368900198500212175e-65
7.437374999999991587e+01 -1.039220313054655039e-64
7.458749999999992042e+01 -1.682087744401992959e-64
7.480124999999992497e+01 -2.073494244859411204e-64
7.501499999999990109e+01 -2.203062045762690987e-64
7.522874999999990564e+01 -2.153368814668640321e-64
7.544249999999991019e+01 -2.079325032787364057e-64
7.565624999999991473e+01 -2.152258694715431053e-64
7.586999999999991928e+01 -2.475935741307245346e-64
7.608374999999992383e+01 -2.993950190673133903e-64
7.629749999999989996e+01 -3.418665650312569276e-64
7.651124999999990450e+01 -3.217347945715608953e-64
7.672499999999990905e+01 -1.687561312099941456e-64
7.693874999999991360e+01 1.861224317515417571e-64
7.715249999999991815e+01 7.829695554065245520e-64
7.736624999999992269e+01 1.599963696241479764e-63
7.757999999999989882e+01 2.523584808902229532e-63
7.779374999999990337e+01 3.332938991392290617e-63
7.800749999999990791e+01 3.710029535602958210e-63
7.822124999999991246e+01 3.285432793335924932e-63
7.843499999999991701e+01 1.722703408460848252e-63
7.864874999999992156e+01 -1.164932351740450335e-63
7.886249999999989768e+01 -5.284220110000375222e-63
7.907624999999990223e+01 -1.014870928246406734e-62
7.928999999999990678e+01 -1.482254021252254677e-62
7.950374999999991132e+01 -1.796273738661258848e-62
7.971749999999991587e+01 -1.799276340949358244e-62
7.993124999999992042e+01 -1.341869804704252837e-62
8.014499999999989654e+01 -3.265942449457919905e-63
8.035874999999990109e+01 1.242727162165486693e-62
8.057249999999990564e+01 3.216543569489136410e-62
8.078624999999991019e+01 5.273811182679434989e-62
8.099999999999991473e+01 6.929592846524915790e-62
8.121374999999991928e+01 7.588194067636256685e-62
8.142749999999989541e+01 6.647336841420270180e-62
8.164124999999989996e+01 3.648088973898436223e-62
8.185499999999990450e+01 -1.548527576854751510e-62
8.206874999999990905e+01 -8.591836926852456637e-62
8.228249999999991360e+01 -1.652416784704750040e-61
8.249624999999991815e+01 -2.376652567942461896e-61
8.270999999999989427e+01 -2.825258172241333339e-61
8.292374999999989882e+01 -2.773759360254957501e-61
8.313749999999990337e+01 -2.027627949743035806e-61
8.335124999999990791e+01 -4.819817993879222017e-62
8.356499999999991246e+01 1.816656855433451129e-61
8.377874999999991701e+01 4.620755954872048787e-61
8.399249999999989313e+01 7.461121264739916799e-61
8.420624999999989768e+01 9.671520203893192231e-61
8.441999999999990223e+01 1.047031523440410634e-60
8.463374999999990678e+01 9.101687055488665863e-61
8.484749999999991132e+01 5.025783195023162015e-61
8.506124999999991587e+01 -1.868587098171484401e-61
8.527499999999989200e+01 -1.107046829662445923e-60
8.548874999999989654e+01 -2.132551944081555538e-60
8.570249999999990109e+01 -3.064305727124816750e-60
8.591624999999990564e+01 -3.647838116968044065e-60
8.612999999999991019e+01 -3.611398627818720098e-60
8.634374999999991473e+01 -2.722571326990116042e-60
8.655749999999989086e+01 -8.571715886228495952e-61
8.677124999999989541e+01 1.930934950477209682e-60
8.698499999999989996e+01 5.354860037396570096e-60
8.719874999999990450e+01 8.872723477262071102e-60
8.741249999999990905e+01 1.171593136921191994e-59
8.762624999999991360e+01 1.297975700659032796e-59
8.783999999999991815e+01 1.177846357941614139e-59
8.805374999999989427e+01 7.453346028137889156e-60
8.826749999999989882e+01 -1.941337860657802666e-61
8.848124999999990337e+01 -1.068765410363014625e-59
8.869499999999990791e+01 -2.273481504418225710e-59
8.890874999999991246e+01 -3.421763913449635462e-59
8.912249999999991701e+01 -4.236432557160300878e-59
8.933624999999989313e+01 -4.412893241148399342e-59
8.954999999999989768e+01 -3.676880195278691637e-59
8.976374999999990223e+01 -1.856201059356226406e-59
8.997749999999990678e+01 1.044424575883915749e-59
9.019124999999991132e+01 4.780858704178020188e-59
9.040499999999991587e+01 8.837481678615142011e-59
9.061874999999989200e+01 1.244331645012607503e-58
9.083249999999989654e+01 1.464969849850150988e-58
9.104624999999990109e+01 1.447403056924507540e-58
9.125999999999990564e+01 1.110132387632402190e-58
9.147374999999991019e+01 4.119802579377433976e-59
9.168749999999991473e+01 -6.248688691056870255e-59
9.190124999999989086e+01 -1.897505373090843915e-58
9.211499999999989541e+01 -3.216302364425023399e-58
9.232874999999989996e+01 -4.315477503046008507e-58
9.254249999999990450e+01 -4.883595230774392877e-58
9.275624999999990905e+01 -4.614269961974685416e-58
9.296999999999991360e+01 -3.273102536592428311e-58
9.318374999999988972e+01 -7.720895047920136530e-59
9.339749999999989427e+01 2.761777473066150418e-58
9.361124999999989882e+01 6.940205825545508302e-58
9.382499999999990337e+01 1.110683996479032965e-57
9.403874999999990791e+01 1.438466493182088013e-57
9.425249999999991246e+01 1.578562184218550697e-57
9.446624999999988859e+01 1.438005757716410283e-57
9.467999999999989313e+01 9.510302825640883715e-58
9.489374999999989768e+01 1.018295988568524095e-58
9.510749999999990223e+01 -1.055558263125532459e-57
9.532124999999990678e+01 -2.385324490865609971e-57
9.553499999999991132e+01 -3.670991009482956655e-57
9.574874999999988745e+01 -4.633549253489959033e-57
9.596249999999989200e+01 -4.968411617122345488e-57
9.617624999999989654e+01 -4.399636144915591952e-57
9.638999999999990109e+01 -2.745831774330175741e-57
9.660374999999990564e+01 1.203714878495475260e-59
9.681749999999991019e+01 3.674232419512486487e-57
9.703124999999988631e+01 7.792379378303437587e-57
9.724499999999989086e+01 1.168070121820503034e-56
9.745874999999989541e+01 1.447909349749511343e-56
9.767249999999989996e+01 1.527160503394703887e-56
9.788624999999990450e+01 1.325374973928239716e-56
9.809999999999990905e+01 7.930114781645661960e-57
9.831374999999988518e+01 -6.881774703202186384e-58
9.852749999999988972e+01 -1.192602268325053788e-56
9.874124999999989427e+01 -2.437104805927541791e-56
9.895499999999989882e+01 -3.592531849384393750e-56
9.916874999999990337e+01 -4.401032091962704920e-56
9.938249999999990791e+01 -4.593145024714431475e-56
9.959624999999988404e+01 -3.937819237871028781e-56
9.980999999999988859e+01 -2.300182209135330014e-56
1.000237499999998931e+02 3.020720803237044778e-57
1.002374999999998977e+02 3.655305005283740542e-56
1.004512499999999022e+02 7.332120027444131445e-56
1.006649999999999068e+02 1.071037977100108774e-55
1.008787499999998829e+02 1.303640697541292272e-55
1.010924999999998875e+02 1.353318700454865317e-55
1.013062499999998920e+02 1.154574844751122927e-55
1.015199999999998965e+02 6.706240412246173873e-56
1.017337499999999011e+02 -9.078407357885607000e-57
1.019474999999999056e+02 -1.065533401877357313e-55
1.021612499999999102e+02 -2.128799186993077875e-55
1.023749999999998863e+02 -3.101256522157107742e-55
1.025887499999998909e+02 -3.767735640997800826e-55
1.028024999999998954e+02 -3.908344537118071934e-55
1.030162499999999000e+02 -3.339655033257284195e-55
1.032299999999999045e+02 -1.960890566621849728e-55
1.034437499999999091e+02 2.023857626141580378e-56
1.036574999999998852e+02 2.966267855146047923e-55
1.038712499999998897e+02 5.977756279290543251e-55
1.040849999999998943e+02 8.733466834924793306e-55
1.042987499999998988e+02 1.063266343518748919e-54
1.045124999999999034e+02 1.106424821617723446e-54
1.047262499999999079e+02 9.520694446408755883e-55
1.049399999999998840e+02 5.724731047821405249e-55
1.051537499999998886e+02 -2.518825247075909847e-56
1.053674999999998931e+02 -7.902470317470417383e-55
1.055812499999998977e+02 -1.625815469853189410e-54
1.057949999999999022e+02 -2.394088967094543518e-54
1.060087499999999068e+02 -2.930926096121201028e-54
1.062224999999998829e+02 -3.069527001491232015e-54
1.064362499999998875e+02 -2.671247853537812440e-54
1.066499999999998920e+02 -1.659685680248914874e-54
1.068637499999998965e+02 -5.247606768519138521e-56
1.070774999999999011e+02 2.015853231347480100e-54
1.072912499999999056e+02 4.286765144391445114e-54
1.075049999999998818e+02 6.392007426726899070e-54
1.077187499999998863e+02 7.892494021006527445e-54
1.079324999999998909e+02 8.341168917670616159e-54
1.081462499999998954e+02 7.364555873579058481e-54
1.083599999999999000e+02 4.752737319993975621e-54
1.085737499999999045e+02 5.431444444004204021e-55
1.087874999999998806e+02 -4.919236876831895303e-54
1.090012499999998852e+02 -1.096288438952989893e-53
1.092149999999998897e+02 -1.662661236700054209e-53
1.094287499999998943e+02 -2.076036652511236263e-53
1.096424999999998988e+02 -2.218818524250127465e-53
1.098562499999999034e+02 -1.991947327434126159e-53
1.100699999999998795e+02 -1.338203424900539866e-53
1.102837499999998840e+02 -2.639232279955744194e-54
1.104974999999998886e+02 1.145329594348015046e-53
1.107112499999998931e+02 2.719639803847990918e-53
1.109249999999998977e+02 4.213880436766269695e-53
1.111387499999999022e+02 5.333151860839177828e-53
1.113524999999998784e+02 5.774056975750423217e-53
1.115662499999998829e+02 5.278290771551294455e-53
1.117799999999998875e+02 3.691828991047110280e-53
1.119937499999998920e+02 1.020232649759611814e-53
1.122074999999998965e+02 -2.531133271107577748e-53
1.124212499999999011e+02 -6.543250048603455798e-53
1.126349999999998772e+02 -1.040525999505625260e-52
1.128487499999998818e+02 -1.337702893455133915e-52
1.130624999999998863e+02 -1.469132013498195147e-52
1.132762499999998909e+02 -1.368686309104429334e-52
1.134899999999998954e+02 -9.955719925781907423e-53
1.137037499999999000e+02 -3.481553093133278213e-53
1.139174999999998761e+02 5.258793404867731946e-53
1.141312499999998806e+02 1.525814816486305980e-52
1.143449999999998852e+02 2.502915159515083227e-52
1.145587499999998897e+02 3.275422126992495548e-52
1.147724999999998943e+02 3.653272999934513992e-52
1.149862499999998988e+02 3.470437854411730093e-52
1.151999999999998749e+02 2.620867504520568681e-52
1.154137499999998795e+02 1.092403558444623816e-52
1.156274999999998840e+02 -1.008004868296728124e-52
1.158412499999998886e+02 -3.444469423877084179e-52
1.160549999999998931e+02 -5.863231786898062114e-52
1.162687499999998977e+02 -7.827685728316351162e-52
1.164824999999999022e+02 -8.876791967267238581e-52
1.166962499999998784e+02 -8.601951176473735116e-52
1.169099999999998829e+02 -6.732878773217714115e-52
1.171237499999998875e+02 -3.219144869309831735e-52
1.173374999999998920e+02 1.708338469474938010e-52
1.175512499999998965e+02 7.511696776423602987e-52
1.177649999999999011e+02 1.336941119301415103e-51
1.179787499999998772e+02 1.825589888719578954e-51
1.181924999999998818e+02 2.107626809133893437e-51
1.184062499999998863e+02 2.084498816169073675e-51
1.186199999999998909e+02 1.688671505811999345e-51
1.188337499999998954e+02 9.028504915347621592e-52
1.190474999999999000e+02 -2.252899908162953475e-52
1.192612499999998761e+02 -1.576532644966445157e-51
1.194749999999998806e+02 -2.964738245884261876e-51
1.196887499999998852e+02 -4.154397947415040647e-51
1.199024999999998897e+02 -4.890940331674165094e-51
1.201162499999998943e+02 -4.941304961180816673e-51
1.203299999999998988e+02 -4.139907089843793616e-51
1.205437499999998749e+02 -2.433065964116409631e-51
1.207574999999998795e+02 8.630716216336403433e-53
1.209712499999998840e+02 3.162066130684463160e-51
1.211849999999998886e+02 6.383185484823881764e-51
1.213987499999998931e+02 9.221185789762229371e-51
1.216124999999998977e+02 1.109646451789656157e-50
1.218262499999998738e+02 1.146823678723482644e-50
1.220399999999998784e+02 9.937477453123546435e-51
1.222537499999998829e+02 6.347662873984570014e-51
1.224674999999998875e+02 8.652031291469540346e-52
1.226812499999998920e+02 -5.978892973953584001e-51
1.228949999999998965e+02 -1.330176065021556526e-50
1.231087499999998727e+02 -1.994531154966016144e-50
1.233224999999998772e+02 -2.461711319438739642e-50
1.235362499999998818e+02 -2.608475806194578498e-50
1.237499999999998863e+02 -2.340138814457770914e-50
1.239637499999998909e+02 -1.612992764305827278e-50
1.241774999999998954e+02 -4.526993591892475780e-51
1.243912499999998715e+02 1.035372396855851737e-50
1.246049999999998761e+02 2.667327889232259418e-50
1.248187499999998806e+02 4.195647407085802769e-50
1.250324999999998852e+02 5.338097777334743080e-50
1.252462499999998897e+02 5.818601063306538860e-50
1.254599999999998943e+02 5.415536123512784513e-50
1.256737499999998704e+02 4.010754872604762780e-50
1.258874999999998749e+02 1.631109078900143318e-50
1.261012499999998795e+02 -1.526099207587864622e-50
1.263149999999998840e+02 -5.091326130337948167e-50
1.265287499999998886e+02 -8.549742333186344021e-50
1.267424999999998931e+02 -1.129817523685925842e-49