2.024999999999579359e-01 -9.036107990134135506e-141
4.162499999999482725e-01 8.378445268779043963e-140
6.299999999999528200e-01 2.504473665572602221e-139
8.437499999999573674e-01 4.979155287882840216e-139
1.057499999999947704e+00 7.999274435258159426e-139
1.271249999999952252e+00 1.067982560053365957e-138
1.484999999999956799e+00 1.117424528752935485e-138
1.698749999999947136e+00 6.403230980468517498e-139
1.912499999999951683e+00 -7.911343758892334765e-139
2.126249999999956231e+00 -3.651867461632581709e-138
2.339999999999946567e+00 -8.268882503738269604e-138
2.553749999999951115e+00 -1.444806638716880612e-137
2.767499999999955662e+00 -2.089159011775825803e-137
2.981249999999945999e+00 -2.445127598292111559e-137
3.194999999999950546e+00 -1.941817942618243845e-137
3.408749999999955094e+00 2.701593020978741845e-138
3.622499999999945430e+00 5.214734375838684682e-137
3.836249999999949978e+00 1.375045906518186737e-136
4.049999999999954525e+00 2.587396404609723604e-136
4.263749999999944862e+00 3.959017959092084834e-136
4.477499999999949409e+00 4.941956990390458288e-136
4.691249999999953957e+00 4.491292449292153720e-136
4.904999999999944293e+00 1.002547377403126341e-136
5.118749999999948841e+00 -7.517773260513838705e-136
5.332499999999953388e+00 -2.284313201566362684e-135
5.546249999999943725e+00 -4.525801472198306398e-135
5.759999999999948272e+00 -7.149718320319590889e-135
5.973749999999952820e+00 -9.203952873861018096e-135
6.187499999999943157e+00 -8.845116142465417993e-135
6.401249999999947704e+00 -3.232013525461983876e-135
6.614999999999952252e+00 1.116303402988022377e-134
6.828749999999942588e+00 3.747635160998312237e-134
7.042499999999947136e+00 7.625249658317437492e-134
7.256249999999951683e+00 1.219460016474719462e-133
7.469999999999942020e+00 1.584487085526986551e-133
7.683749999999946567e+00 1.548938212867785556e-133
7.897499999999951115e+00 6.435314626477133872e-134
8.111249999999941451e+00 -1.703739898890520737e-133
8.324999999999945999e+00 -5.984854290737260628e-133
8.538749999999950546e+00 -1.225315881196681434e-132
8.752499999999940883e+00 -1.957184197233807263e-132
8.966249999999945430e+00 -2.533540119205525029e-132
9.179999999999949978e+00 -2.467503279033042413e-132
9.393749999999940314e+00 -1.036069843257385145e-132
9.607499999999944862e+00 2.617014488162554315e-132
9.821249999999949409e+00 9.189160200878802126e-132
1.003499999999993975e+01 1.867215496315276489e-131
1.024874999999994429e+01 2.954322688157421257e-131
1.046249999999994884e+01 3.781423128576457069e-131
1.067624999999993918e+01 3.626899774949073524e-131
1.088999999999994373e+01 1.449402841264661583e-131
1.110374999999994827e+01 -3.942056849354447737e-131
1.131749999999993861e+01 -1.345081491419263156e-130
1.153124999999994316e+01 -2.691269486009544154e-130
1.174499999999994770e+01 -4.198872167790194542e-130
1.195874999999993804e+01 -5.292775618082572353e-130
1.217249999999994259e+01 -4.967817780317746339e-130
1.238624999999994714e+01 -1.817525505719532907e-130
1.259999999999993747e+01 5.705918353062633481e-130
1.281374999999994202e+01 1.867908784531834678e-129
1.302749999999994657e+01 3.666499197178848609e-129
1.324124999999995111e+01 5.629361347612236593e-129
1.345499999999994145e+01 6.975957236861431298e-129
1.366874999999994600e+01 6.388408793951773102e-129
1.388249999999995055e+01 2.079651572565540636e-129
1.409624999999994088e+01 -7.838743378581171757e-129
1.430999999999994543e+01 -2.455244252746849931e-128
1.452374999999994998e+01 -4.723555898620322970e-128
1.473749999999994031e+01 -7.134071448020324649e-128
1.495124999999994486e+01 -8.689072947687874621e-128
1.516499999999994941e+01 -7.758829058713169161e-128
1.537874999999993975e+01 -2.200685762004052887e-128
1.559249999999994429e+01 1.015723877722876849e-127
1.580624999999994884e+01 3.052462020566786045e-127
1.601999999999993918e+01 5.760088653306229553e-127
1.623374999999994373e+01 8.563353564157843859e-127
1.644749999999994827e+01 1.025930572149754948e-126
1.666124999999993861e+01 8.942964520409037520e-127
1.687499999999994316e+01 2.183416577156675365e-127
1.708874999999994770e+01 -1.238242590426497197e-126
1.730249999999993804e+01 -3.589877844758473020e-126
1.751624999999994259e+01 -6.656182560460528275e-126
1.772999999999994714e+01 -9.753569546683702725e-126
1.794374999999993747e+01 -1.151157225359862151e-125
1.815749999999994202e+01 -9.821215003183415762e-126
1.837124999999994657e+01 -2.066499244636478142e-126
1.858499999999993690e+01 1.419249628385003993e-125
1.879874999999994145e+01 3.995820604446944217e-125
1.901249999999994600e+01 7.296750054212343821e-125
1.922624999999993634e+01 1.055725458460015151e-124
1.943999999999994088e+01 1.229959712152001139e-124
1.965374999999994543e+01 1.030855914445628059e-124
1.986749999999993577e+01 1.908537256347299574e-125
2.008124999999994031e+01 -1.529740325420429260e-124
2.029499999999994486e+01 -4.211996302076595371e-124
2.050874999999993520e+01 -7.595102020052245112e-124
2.072249999999993975e+01 -1.087183566782576147e-123
2.093624999999994429e+01 -1.253188512125130548e-123
2.114999999999993463e+01 -1.036453709372903534e-123
2.136374999999993918e+01 -1.764925141637016508e-124
2.157749999999994373e+01 1.551192059538827560e-123
2.179124999999993406e+01 4.206680501105217346e-123
2.200499999999993861e+01 7.511192053116145103e-123
2.221874999999994316e+01 1.065947876081070653e-122
2.243249999999993349e+01 1.218675528336569571e-122
2.264624999999993804e+01 9.994821427893551304e-123
2.285999999999994259e+01 1.667332991861253682e-123
2.307374999999993292e+01 -1.480305547682091595e-122
2.328749999999993747e+01 -3.981799774203971747e-122
2.350124999999994202e+01 -7.059525130985005798e-122
2.371499999999993236e+01 -9.953214412240189130e-122
2.392874999999993690e+01 -1.131373952921667283e-121
2.414249999999994145e+01 -9.246231300194468076e-122
2.435624999999993179e+01 -1.614230552133997603e-122
2.456999999999993634e+01 1.329647259306095971e-121
2.478374999999994088e+01 3.571911766967372609e-121
2.499749999999993122e+01 6.304857674437292884e-121
2.521124999999993577e+01 8.848401599514260356e-121
2.542499999999994031e+01 1.002207896839622623e-120
2.563874999999993065e+01 8.197710203084423000e-121
2.585249999999993520e+01 1.575583999793380764e-121
2.606624999999993975e+01 -1.124110994619326886e-120
2.627999999999994429e+01 -3.035677131483324659e-120
2.649374999999993463e+01 -5.347399271505494153e-120
2.670749999999993918e+01 -7.482471681352659758e-120
2.692124999999994373e+01 -8.459795880021929108e-120
2.713499999999993406e+01 -6.949255542168711112e-120
2.734874999999993861e+01 -1.508571700445988222e-120
2.756249999999994316e+01 8.945226922088547506e-120
2.777624999999993349e+01 2.442637247120171047e-119
2.798999999999993804e+01 4.302001529645671857e-119
2.820374999999994259e+01 6.008569505356353374e-119
2.841749999999993292e+01 6.788353928543321535e-119
2.863124999999993747e+01 5.609937624296468528e-119
2.884499999999994202e+01 1.376869620447839338e-119
2.905874999999993236e+01 -6.705197247922222552e-119
2.927249999999993690e+01 -1.859203846462243875e-118
2.948624999999994145e+01 -3.276956547826536474e-118
2.969999999999993179e+01 -4.569548026929970171e-118
2.991374999999993634e+01 -5.158154959871286675e-118
3.012749999999994088e+01 -4.285736003387858276e-118
3.034124999999993122e+01 -1.165473175907781846e-118
3.055499999999993577e+01 4.748005341153666690e-118
3.076874999999994031e+01 1.337482690069974803e-117
3.098249999999993065e+01 2.357372817244621809e-117
3.119624999999993520e+01 3.277801234558655322e-117
3.140999999999993975e+01 3.689256237494869813e-117
3.162374999999993008e+01 3.068140134752426002e-117
3.183749999999993463e+01 8.859045004760942997e-118
3.205124999999993918e+01 -3.200924615676839083e-117
3.226499999999992951e+01 -9.091888321282399560e-117
3.247874999999993406e+01 -1.596123801455852501e-116
3.269249999999993861e+01 -2.204188995553797292e-116
3.290624999999992895e+01 -2.460070406132657093e-116
3.311999999999993349e+01 -2.024933072481182980e-116
3.333374999999993804e+01 -5.712117368861563818e-117
3.354749999999992838e+01 2.091155664964705508e-116
3.376124999999993292e+01 5.851020218827650748e-116
3.397499999999993747e+01 1.012901600274849872e-115
3.418874999999992781e+01 1.376633234401965245e-115
3.440249999999993236e+01 1.504843641676835191e-115
3.461624999999993690e+01 1.194729370219464443e-115
3.482999999999992724e+01 2.641731444668352988e-116
3.504374999999993179e+01 -1.368713788428037161e-115
3.525749999999993634e+01 -3.589316440936144822e-115
3.547124999999992667e+01 -5.997862962114732527e-115
3.568499999999993122e+01 -7.866434649556739737e-115
3.589874999999993577e+01 -8.188327083200112481e-115
3.611249999999992610e+01 -5.863280059880186595e-115
3.632624999999993065e+01 -4.016996550166222982e-117
3.653999999999993520e+01 9.406441210500599617e-115
3.675374999999992554e+01 2.135664652429907136e-114
3.696749999999993008e+01 3.305148113301774703e-114
3.718124999999993463e+01 4.006106083337981209e-114
3.739499999999992497e+01 3.687186429873320889e-114
3.760874999999992951e+01 1.828629005641305373e-114
3.782249999999993406e+01 -1.835687953934959271e-114
3.803624999999993861e+01 -7.044943488418854605e-114
3.824999999999994316e+01 -1.275945159218292832e-113
3.846374999999991928e+01 -1.704534131043241297e-113
3.867749999999992383e+01 -1.723812459721844473e-113
3.889124999999992838e+01 -1.051718724334332754e-113
3.910499999999993292e+01 5.047015919671169270e-114
3.931874999999993747e+01 2.905684985015959451e-113
3.953249999999994202e+01 5.726378397144502997e-113
3.974624999999991815e+01 8.051373210566556031e-113
3.995999999999992269e+01 8.493759868948907837e-113
4.017374999999992724e+01 5.423387289727022142e-113
4.038749999999993179e+01 -2.532451192491990164e-113
4.060124999999993634e+01 -1.571508227405487433e-112
4.081499999999994088e+01 -3.249523577126001387e-112
4.102874999999991701e+01 -4.842309571013385660e-112
4.124249999999992156e+01 -5.587706598480271517e-112
4.145624999999992610e+01 -4.472985047905703426e-112
4.166999999999993065e+01 -4.538183300975564680e-113
4.188374999999993520e+01 7.145516734040337038e-112
4.209749999999993975e+01 1.807082398430617567e-111
4.231124999999991587e+01 3.051300648414909442e-111
4.252499999999992042e+01 4.061388680337275495e-111
4.273874999999992497e+01 4.239170840348006973e-111
4.295249999999992951e+01 2.842976148845611650e-111
4.316624999999993406e+01 -8.362721255651032122e-112
4.337999999999993861e+01 -7.178248445563071015e-111
4.359374999999991473e+01 -1.583721644328925783e-110
4.380749999999991928e+01 -2.532065250044781322e-110
4.402124999999992383e+01 -3.267921150000095802e-110
4.423499999999992838e+01 -3.350293324019157956e-110
4.444874999999993292e+01 -2.244791561031791966e-110
4.466249999999993747e+01 5.512478036764990513e-111
4.487624999999991360e+01 5.303813018092306794e-110
4.508999999999991815e+01 1.177311403464097319e-109
4.530374999999992269e+01 1.892958302247615785e-109
4.551749999999992724e+01 2.474389090389909676e-109
4.573124999999993179e+01 2.617606091232778121e-109
4.594499999999993634e+01 1.950668029144775612e-109
4.615874999999991246e+01 1.134511746886009687e-110
4.637249999999991701e+01 -3.110865050340014009e-109
4.658624999999992156e+01 -7.621491313892240917e-109
4.679999999999992610e+01 -1.281214555122872543e-108
4.701374999999993065e+01 -1.742295457973524725e-108
4.722749999999993520e+01 -1.950790572734092211e-108
4.744124999999993975e+01 -1.660587681637255730e-108
4.765499999999991587e+01 -6.194898905930959039e-109
4.786874999999992042e+01 1.353016442252234953e-108
4.808249999999992497e+01 4.259396229866600489e-108
4.829624999999992951e+01 7.804357308487706704e-108
4.850999999999993406e+01 1.129102303877110427e-107
4.872374999999993861e+01 1.357579178123977782e-107
4.893749999999991473e+01 1.313343489567202194e-107
4.915124999999991928e+01 8.282259715320146484e-108
4.936499999999992383e+01 -2.398829371443301833e-108
4.957874999999992838e+01 -1.946810296616235209e-107
4.979249999999993292e+01 -4.190014055629465950e-107
5.000624999999993747e+01 -6.638864035501557710e-107
5.021999999999991360e+01 -8.689405635262739767e-107
5.043374999999991815e+01 -9.471795347820364579e-107
5.064749999999992269e+01 -7.940080429461614610e-107
5.086124999999992724e+01 -3.067866783252005937e-107
5.107499999999993179e+01 5.842866209012462867e-107
5.128874999999993634e+01 1.876010704208684565e-106
5.150249999999991246e+01 3.448510188596209837e-106
5.171624999999991701e+01 5.028108273907316727e-106
5.192999999999992156e+01 6.170728456657034526e-106
5.214374999999992610e+01 6.282205565985238232e-106
5.235749999999993065e+01 4.691313374146016542e-106
5.257124999999993520e+01 7.863696132408187787e-107
5.278499999999991132e+01 -5.784077551166882649e-106
5.299874999999991587e+01 -1.486200729000586631e-105
5.321249999999992042e+01 -2.551843866262184348e-105
5.342624999999992497e+01 -3.583912533696976794e-105
5.363999999999992951e+01 -4.283822131751880389e-105
5.385374999999993406e+01 -4.259464081877859221e-105
5.406749999999991019e+01 -3.070545802591144587e-105
5.428124999999991473e+01 -3.128600563286245119e-106
5.449499999999991928e+01 4.256359658529383338e-105
5.470874999999992383e+01 1.055826269689699034e-104
5.492249999999992838e+01 1.801553479733031757e-104
5.513624999999993292e+01 2.539186942151045091e-104
5.534999999999990905e+01 3.069709293186193151e-104
5.556374999999991360e+01 3.122242505501669311e-104
5.577749999999991815e+01 2.377997294727984341e-104
5.599124999999992269e+01 5.218506983592308613e-105
5.620499999999992724e+01 -2.673394670935335964e-104
5.641874999999993179e+01 -7.229976511691371232e-104
5.663249999999990791e+01 -1.282379938697118857e-103
5.684624999999991246e+01 -1.863958870483149316e-103
5.705999999999991701e+01 -2.325921565594686727e-103
5.727374999999992156e+01 -2.463694061143784499e-103
5.748749999999992610e+01 -2.022971354890691029e-103
5.770124999999993065e+01 -7.355944919496616896e-104
5.791499999999990678e+01 1.615626530745697267e-103
5.812874999999991132e+01 5.101027322067476209e-103
5.834249999999991587e+01 9.522596325116772709e-103
5.855624999999992042e+01 1.428385256383978138e-102
5.876999999999992497e+01 1.828292338652156208e-102
5.898374999999992951e+01 1.987668649642043465e-102
5.919749999999990564e+01 1.697694441688899312e-102
5.941124999999991019e+01 7.343563519774468972e-103
5.962499999999991473e+01 -1.087350447636119603e-102
5.983874999999991928e+01 -3.832952977575881762e-102
6.005249999999992383e+01 -7.347315224069592179e-102
6.026624999999992838e+01 -1.114839364319760234e-101
6.047999999999990450e+01 -1.434398012344299155e-101
6.069374999999990905e+01 -1.561193432893136616e-101
6.090749999999991360e+01 -1.329315978294821449e-101
6.112124999999991815e+01 -5.646427562634002998e-102
6.133499999999992269e+01 8.700892795304294045e-102
6.154874999999992724e+01 3.010753972134412817e-101
6.176249999999993179e+01 5.713852866628839074e-101
6.197624999999990791e+01 8.579056217704049687e-101
6.218999999999991246e+01 1.089532762407009951e-100
6.240374999999991701e+01 1.164189383721161107e-100
6.261749999999992156e+01 9.579634048788078453e-101
6.283124999999992610e+01 3.465098178918721746e-101
6.304499999999993065e+01 -7.595612852114205038e-101
6.325874999999990678e+01 -2.366546674388716106e-100
6.347249999999991132e+01 -4.342480450123464615e-100
6.368624999999991587e+01 -6.366310759376880302e-100
6.389999999999992042e+01 -7.898732621389317092e-100
6.411374999999992497e+01 -8.196648885951592687e-100
6.432749999999992951e+01 -6.394497168273933536e-100
6.454124999999990564e+01 -1.671097346333514770e-100
6.475499999999991019e+01 6.492031987041888143e-100
6.496874999999991473e+01 1.797710810030041051e-99
6.518249999999991928e+01 3.166858630815399207e-99
6.539624999999992383e+01 4.514770116827268798e-99
6.560999999999992838e+01 5.456229496521871743e-99
6.582374999999990450e+01 5.481441991750357449e-99
6.603749999999990905e+01 4.020580094641780679e-99
6.625124999999991360e+01 5.638724925179156485e-100
6.646499999999991815e+01 -5.162461113987499268e-99
6.667874999999992269e+01 -1.297923521203458494e-98
6.689249999999992724e+01 -2.203102915829996061e-98
6.710624999999990337e+01 -3.061352630141597880e-98
6.731999999999990791e+01 -3.612802975362143368e-98
6.753374999999991246e+01 -3.525016581631649339e-98
6.774749999999991701e+01 -2.439291643345140449e-98
6.796124999999992156e+01 -5.118786289541170885e-100
6.817499999999992610e+01 3.776285102497478558e-98
6.838874999999990223e+01 8.877946470704127460e-98
6.860249999999990678e+01 1.465340964059111135e-97
6.881624999999991132e+01 1.997181174390547344e-97
6.902999999999991587e+01 2.316108525281903190e-97
6.924374999999992042e+01 2.213309430439471291e-97
6.945749999999992497e+01 1.468972290353127448e-97
6.967124999999990109e+01 -9.664276431696327117e-99
6.988499999999990564e+01 -2.553266036411493115e-97
7.009874999999991019e+01 -5.779175590504130937e-97
7.031249999999991473e+01 -9.382728817512169162e-97
7.052624999999991928e+01 -1.264874420372540799e-96
7.073999999999992383e+01 -1.453756608340309185e-96
7.095374999999989996e+01 -1.376685604796742566e-96
7.116749999999990450e+01 -9.001985093664505290e-97
7.138124999999990905e+01 8.321372474848511847e-98
7.159499999999991360e+01 1.612851044441271033e-96
7.180874999999991815e+01 3.610947416484818398e-96
7.202249999999992269e+01 5.835856437189504712e-96
7.223624999999989882e+01 7.850259432275515275e-96
7.244999999999990337e+01 9.020884114028705355e-96
7.266374999999990791e+01 8.567568014749238787e-96
7.287749999999991246e+01 5.677145098904765741e-96
7.309124999999991701e+01 -3.099053982985311879e-97
7.330499999999992156e+01 -9.645857924817247670e-96
7.351874999999989768e+01 -2.188102025583435008e-95
7.373249999999990223e+01 -3.557857100065428239e-95
7.394624999999990678e+01 -4.811583523224489396e-95
7.415999999999991132e+01 -5.567069008536046375e-95
7.437374999999991587e+01 -5.350130369711710600e-95
7.458749999999992042e+01 -3.661529236817795864e-95
7.480124999999992497e+01 -8.813906903148075844e-97
7.501499999999990109e+01 5.544393358329705842e-95
7.522874999999990564e+01 1.299220910363842166e-94
7.544249999999991019e+01 2.141681655306261154e-94
7.565624999999991473e+01 2.925767997974497022e-94
7.586999999999991928e+01 3.421368900529993588e-94
7.608374999999992383e+01 3.340013087810690541e-94
7.629749999999989996e+01 2.374161989089600075e-94
7.651124999999990450e+01 2.636503338804875717e-95
7.672499999999990905e+01 -3.111990157690466824e-94
7.693874999999991360e+01 -7.623841688220514231e-94
7.715249999999991815e+01 -1.278431271715643690e-93
7.736624999999992269e+01 -1.766606033798071689e-93
7.757999999999989882e+01 -2.088566655500382459e-93
7.779374999999990337e+01 -2.069306591515976950e-93
7.800749999999990791e+01 -1.520430116372033341e-93
7.822124999999991246e+01 -2.800245818435663663e-94
7.843499999999991701e+01 1.731530456588381840e-93
7.864874999999992156e+01 4.444901518937888906e-93
7.886249999999989768e+01 7.575021973039104256e-93
7.907624999999990223e+01 1.057106042970816451e-92
7.928999999999990678e+01 1.260531314282662040e-92
7.950374999999991132e+01 1.262586061171213694e-92
7.971749999999991587e+01 9.495655668528950744e-93
7.993124999999992042e+01 2.231511913623688315e-93
8.014499999999989654e+01 -9.661383546103063327e-93
8.035874999999990109e+01 -2.579061106541417106e-92
8.057249999999990564e+01 -4.447842681039042937e-92
8.078624999999991019e+01 -6.246592931095366628e-92
8.099999999999991473e+01 -7.485182853498046727e-92
8.121374999999991928e+01 -7.541247288788469695e-92
8.142749999999989541e+01 -5.743462215366057048e-92
8.164124999999989996e+01 -1.513522690977435576e-92
8.185499999999990450e+01 5.436558943722034521e-92
8.206874999999990905e+01 1.487116351945932651e-91
8.228249999999991360e+01 2.580097233228174080e-91
8.249624999999991815e+01 3.631611087691345879e-91
8.270999999999989427e+01 4.355962577652431042e-91
8.292374999999989882e+01 4.392520296676495721e-91
8.313749999999990337e+01 3.355222821421098599e-91
8.335124999999990791e+01 9.155963003957451428e-92
8.356499999999991246e+01 -3.083364311522112620e-91
8.377874999999991701e+01 -8.494356679401684288e-91
8.399249999999989313e+01 -1.473715775463277092e-90
8.420624999999989768e+01 -2.070893906030951294e-90
8.441999999999990223e+01 -2.477718292366606772e-90
8.463374999999990678e+01 -2.490163179248240521e-90
8.484749999999991132e+01 -1.892420524910865207e-90
8.506124999999991587e+01 -5.044447944058479756e-91
8.527499999999989200e+01 1.753920542564199777e-90
8.548874999999989654e+01 4.789432707884934615e-90
8.570249999999990109e+01 8.265957954258140467e-90
8.591624999999990564e+01 1.155853777215762959e-89
8.612999999999991019e+01 1.375503689511392787e-89
8.634374999999991473e+01 1.373022321864416785e-89
8.655749999999989086e+01 1.031215374074649980e-89
8.677124999999989541e+01 2.548151395372260077e-90
8.698499999999989996e+01 -9.943390665301694186e-90
8.719874999999990450e+01 -2.657780881642196093e-89
8.741249999999990905e+01 -4.544109662686407891e-89
8.762624999999991360e+01 -6.306602384179016321e-89
8.783999999999991815e+01 -7.447579128436909597e-89
8.805374999999989427e+01 -7.362392509291022754e-89
8.826749999999989882e+01 -5.432758877075899436e-89
8.848124999999990337e+01 -1.171942024413652061e-89
8.869499999999990791e+01 5.587262128632303769e-89
8.890874999999991246e+01 1.448607646010541270e-88
8.912249999999991701e+01 2.445628683455604211e-88
8.933624999999989313e+01 3.361688027963070094e-88
8.954999999999989768e+01 3.931739808126084935e-88
8.976374999999990223e+01 3.839252458987819670e-88
8.997749999999990678e+01 2.767329729609373996e-88
9.019124999999991132e+01 4.760212162222971628e-89
9.040499999999991587e+01 -3.099832767161965139e-88
9.061874999999989200e+01 -7.745803816452485936e-88
9.083249999999989654e+01 -1.287830205488508461e-87
9.104624999999990109e+01 -1.749988058181691338e-87
9.125999999999990564e+01 -2.023302235329934461e-87
9.147374999999991019e+01 -1.946368828083730546e-87
9.168749999999991473e+01 -1.361472242380522353e-87
9.190124999999989086e+01 -1.547482872414597248e-88
9.211499999999989541e+01 1.694213440465563427e-87
9.232874999999989996e+01 4.060709865664472531e-87
9.254249999999990450e+01 6.632772079510012841e-87
9.275624999999990905e+01 8.893515807299181704e-87
9.296999999999991360e+01 1.014445401243657138e-86
9.318374999999988972e+01 9.584394262741059420e-87
9.339749999999989427e+01 6.452224751257649909e-87
9.361124999999989882e+01 2.304285745046623841e-88
9.382499999999990337e+01 -9.110170878599720923e-87
9.403874999999990791e+01 -2.086353679249821912e-86
9.425249999999991246e+01 -3.339820590386897685e-86
9.446624999999988859e+01 -4.409751356018369544e-86
9.467999999999989313e+01 -4.950837623842059152e-86
9.489374999999989768e+01 -4.576419375543442783e-86
9.510749999999990223e+01 -2.931282282545132667e-86
9.532124999999990678e+01 2.078353089050707578e-87
9.553499999999991132e+01 4.814888846898962779e-86
9.574874999999988745e+01 1.050051410527828210e-85
9.596249999999989200e+01 1.643045794046607057e-85
9.617624999999989654e+01 2.131170283940042660e-85
9.638999999999990109e+01 2.348208136204730845e-85
9.660374999999990564e+01 2.113130804843423557e-85
9.681749999999991019e+01 1.266296139262251633e-85
9.703124999999988631e+01 -2.822525850638070175e-86
9.724499999999989086e+01 -2.498247922912102079e-85
9.745874999999989541e+01 -5.172565288039920521e-85
9.767249999999989996e+01 -7.888500979953470194e-85
9.788624999999990450e+01 -1.002326418255177573e-84
9.809999999999990905e+01 -1.079942714787654118e-84
9.831374999999988518e+01 -9.397452849006969793e-85
9.852749999999988972e+01 -5.130938838029313624e-85
9.874124999999989427e+01 2.328099144657273918e-85
9.895499999999989882e+01 1.270452375563952787e-84
9.916874999999990337e+01 2.490549257597043654e-84
9.938249999999990791e+01 3.690130482248585064e-84
9.959624999999988404e+01 4.577433023484893979e-84
9.980999999999988859e+01 4.800190304691280446e-84
1.000237499999998931e+02 4.001329795806573959e-84
1.002374999999998977e+02 1.901361148514387027e-84
1.004512499999999022e+02 -1.599991998275781660e-84
1.006649999999999068e+02 -6.318383876359651433e-84
1.008787499999998829e+02 -1.169909418333657562e-83
1.010924999999998875e+02 -1.678032260355182916e-83
1.013062499999998920e+02 -2.023652134660427639e-83
1.015199999999998965e+02 -2.052762928514118599e-83
1.017337499999999011e+02 -1.616640370047681517e-83
1.019474999999999056e+02 -6.093274751697922497e-84
1.021612499999999102e+02 9.882336878656826717e-84
1.023749999999998863e+02 3.064961021025653835e-83
1.025887499999998909e+02 5.347976712810236410e-83
1.028024999999998954e+02 7.395230198603830921e-83
1.030162499999999000e+02 8.624933148253586358e-83
1.032299999999999045e+02 8.391097278601387983e-83
1.034437499999999091e+02 6.107552387725008179e-83
1.036574999999998852e+02 1.412278127632661735e-83
1.038712499999998897e+02 -5.649352654141313114e-83
1.040849999999998943e+02 -1.445774159601067405e-82
1.042987499999998988e+02 -2.371551170293171801e-82
1.045124999999999034e+02 -3.145944083638167249e-82
1.047262499999999079e+02 -3.523521227233625286e-82
1.049399999999998840e+02 -3.246393067156547087e-82
1.051537499999998886e+02 -2.099601490316196287e-82
1.053674999999998931e+02 1.986635787687839160e-84
1.055812499999998977e+02 3.031019658854937027e-82
1.057949999999999022e+02 6.609621523278559085e-82
1.060087499999999068e+02 1.016135949734052416e-81
1.062224999999998829e+02 1.284764747113837089e-81
1.064362499999998875e+02 1.368029354308223586e-81
1.066499999999998920e+02 1.169166639359125676e-81
1.068637499999998965e+02 6.171692746430942604e-82
1.070774999999999011e+02 -3.056705330457258249e-82
1.072912499999999056e+02 -1.537337358799557052e-81
1.075049999999998818e+02 -2.917579333963715644e-81
1.077187499999998863e+02 -4.185052904837832307e-81
1.079324999999998909e+02 -4.997359308148996058e-81
1.081462499999998954e+02 -4.978723752057705303e-81
1.083599999999999000e+02 -3.795388708703518077e-81
1.085737499999999045e+02 -1.252129672065776448e-81
1.087874999999998806e+02 2.604554956184045883e-81
1.090012499999998852e+02 7.398661837280701340e-81
1.092149999999998897e+02 1.237984076910098652e-80
1.094287499999998943e+02 1.645004116479036926e-80
1.096424999999998988e+02 1.828466854466179865e-80
1.098562499999999034e+02 1.655781820792852625e-80
1.100699999999998795e+02 1.025975792073729206e-80
1.102837499999998840e+02 -9.325636195455113145e-82
1.104974999999998886e+02 -1.630036185952702115e-80
1.107112499999998931e+02 -3.383605804443427111e-80
1.109249999999998977e+02 -5.020913352444665878e-80
1.111387499999999022e+02 -6.104028963796490358e-80
1.113524999999998784e+02 -6.154292911058313801e-80
1.115662499999998829e+02 -4.752477879507611526e-80
1.117799999999998875e+02 -1.665059753265838753e-80
1.119937499999998920e+02 3.023851285492908464e-80
1.122074999999998965e+02 8.805205667818132858e-80
1.124212499999999011e+02 1.469900855712872490e-79
1.126349999999998772e+02 1.930618639025675130e-79
1.128487499999998818e+02 2.098562716268641376e-79
1.130624999999998863e+02 1.816373883576231022e-79
1.132762499999998909e+02 9.753760754957287734e-80
1.134899999999998954e+02 -4.374892533452906729e-80
1.137037499999999000e+02 -2.297435867714362220e-79
1.139174999999998761e+02 -4.316881270230974578e-79
1.141312499999998806e+02 -6.051228206782790202e-79
1.143449999999998852e+02 -6.946702658278691641e-79
1.145587499999998897e+02 -6.435681864731261463e-79
1.147724999999998943e+02 -4.075204320790662652e-79
1.149862499999998988e+02 2.884019551265850692e-80
1.151999999999998749e+02 6.359651930240092575e-79
1.154137499999998795e+02 1.328150049476598482e-78
1.156274999999998840e+02 1.961910087305696031e-78
1.158412499999998886e+02 2.348458914577825757e-78
1.160549999999998931e+02 2.283089739074665344e-78
1.162687499999998977e+02 1.591143946337100156e-78
1.164824999999999022e+02 1.858873845116697243e-79
1.166962499999998784e+02 -1.871422264764890744e-78
1.169099999999998829e+02 -4.323713118353690803e-78
1.171237499999998875e+02 -6.700026568965325741e-78
1.173374999999998920e+02 -8.344632819110840544e-78
1.175512499999998965e+02 -8.506244790318983486e-78
1.177649999999999011e+02 -6.490486934330676766e-78
1.179787499999998772e+02 -1.864024784395077319e-78
1.181924999999998818e+02 5.319397506439393168e-78
1.184062499999998863e+02 1.431920171234849319e-77
1.186199999999998909e+02 2.359686918307944041e-77
1.188337499999998954e+02 3.086035792079484377e-77
1.190474999999999000e+02 3.332046342892875756e-77
1.192612499999998761e+02 2.818633267991561242e-77
1.194749999999998806e+02 1.337866246457214714e-77
1.196887499999998852e+02 -1.162516289412318407e-77
1.199024999999998897e+02 -4.497018270722317263e-77
1.201162499999998943e+02 -8.184501219865908725e-77
1.203299999999998988e+02 -1.143963834236569321e-76
1.205437499999998749e+02 -1.323735154832703116e-76
1.207574999999998795e+02 -1.246583365408205097e-76
1.209712499999998840e+02 -8.168363125330958164e-77
1.211849999999998886e+02 1.479462034684406960e-78
1.213987499999998931e+02 1.218442496364400151e-76
1.216124999999998977e+02 2.657752522934019974e-76
1.218262499999998738e+02 4.077137462016303141e-76
1.220399999999998784e+02 5.113092925756662144e-76
1.222537499999998829e+02 5.337169335661154331e-76
1.224674999999998875e+02 4.333649734798731758e-76
1.226812499999998920e+02 1.807747046221855738e-76
1.228949999999998965e+02 -2.289152527056576187e-76
1.231087499999998727e+02 -7.640604484427752742e-76
1.233224999999998772e+02 -1.348440357332229297e-75
1.235362499999998818e+02 -1.860610439071593106e-75
1.237499999999998863e+02 -2.144002293147855315e-75
1.239637499999998909e+02 -2.029893280624200886e-75
1.241774999999998954e+02 -1.373140543359205058e-75
1.243912499999998715e+02 -9.743778572377698468e-77
1.246049999999998761e+02 1.756814828479604566e-75
1.248187499999998806e+02 3.992472496594162017e-75
1.250324999999998852e+02 6.236379018350485917e-75
1.252462499999998897e+02 7.954233427628003557e-75
1.254599999999998943e+02 8.510341539301563698e-75
1.256737499999998704e+02 7.276733062042552771e-75