2.024999999999579359e-01 -2.249460574156589920e-94
4.162499999999482725e-01 -2.962669128639157961e-94
6.299999999999528200e-01 -3.161803581038512262e-94
8.437499999999573674e-01 -2.352042574132129384e-94
1.057499999999947704e+00 -1.204542966158845924e-96
1.271249999999952252e+00 4.233060100983428726e-94
1.484999999999956799e+00 1.035451980868440925e-93
1.698749999999947136e+00 1.760758560296797940e-93
1.912499999999951683e+00 2.423646838709021348e-93
2.126249999999956231e+00 2.731983461947326284e-93
2.339999999999946567e+00 2.292447662277683508e-93
2.553749999999951115e+00 6.751452384804627233e-94
2.767499999999955662e+00 -2.457973194497281067e-93
2.981249999999945999e+00 -7.158569245659284901e-93
3.194999999999950546e+00 -1.295141156024452078e-92
3.408749999999955094e+00 -1.860032246088095346e-92
3.622499999999945430e+00 -2.197057090657227104e-92
3.836249999999949978e+00 -2.011087470657215655e-92
4.049999999999954525e+00 -9.691508350373370752e-93
4.263749999999944862e+00 1.209116839471387201e-92
4.477499999999949409e+00 4.611903925785801187e-92
4.691249999999953957e+00 8.959873015153437036e-92
4.904999999999944293e+00 1.343104598806123172e-91
5.118749999999948841e+00 1.654840550194249906e-91
5.332499999999953388e+00 1.621620515430434585e-91
5.546249999999943725e+00 1.000099436513248958e-91
5.759999999999948272e+00 -4.263446437485638351e-92
5.973749999999952820e+00 -2.752503510886265431e-91
6.187499999999943157e+00 -5.829968382832657342e-91
6.401249999999947704e+00 -9.143039157432862631e-91
6.614999999999952252e+00 -1.172320095903025549e-90
6.828749999999942588e+00 -1.215932885106284440e-90
7.042499999999947136e+00 -8.767914802384515431e-91
7.256249999999951683e+00 2.260017160414296302e-93
7.469999999999942020e+00 1.505539270938455944e-90
7.683749999999946567e+00 3.564612015960864748e-90
7.897499999999951115e+00 5.874748961255605736e-90
8.111249999999941451e+00 7.833748751128040482e-90
8.324999999999945999e+00 8.539359196360492998e-90
8.538749999999950546e+00 6.886379874469892134e-90
8.752499999999940883e+00 1.798687525676919898e-90
8.966249999999945430e+00 -7.390331375101602773e-90
9.179999999999949978e+00 -2.043642661086821202e-89
9.393749999999940314e+00 -3.564884663016198967e-89
9.607499999999944862e+00 -4.947651523309626231e-89
9.821249999999949409e+00 -5.643533138689495574e-89
1.003499999999993975e+01 -4.962752305587866737e-89
1.024874999999994429e+01 -2.207269890629522514e-89
1.046249999999994884e+01 3.105462028395783494e-89
1.067624999999993918e+01 1.094239629920620029e-88
1.088999999999994373e+01 2.042721882361221299e-88
1.110374999999994827e+01 2.957457981299215734e-88
1.131749999999993861e+01 3.521314538087118746e-88
1.153124999999994316e+01 3.324419678810894797e-88
1.174499999999994770e+01 1.936695948183313307e-88
1.195874999999993804e+01 -9.666361195994870552e-89
1.217249999999994259e+01 -5.433467433688776849e-88
1.238624999999994714e+01 -1.104325252423040991e-87
1.259999999999993747e+01 -1.674449019236160312e-87
1.281374999999994202e+01 -2.079153448772330576e-87
1.302749999999994657e+01 -2.086298149594590009e-87
1.324124999999995111e+01 -1.443682404072938411e-87
1.345499999999994145e+01 5.378863590680533633e-89
1.366874999999994600e+01 2.470300016144201425e-87
1.388249999999995055e+01 5.621991860427636256e-87
1.409624999999994088e+01 8.982127313174213468e-87
1.430999999999994543e+01 1.163587351393574326e-86
1.452374999999994998e+01 1.232894069195906184e-86
1.473749999999994031e+01 9.651492537064579473e-87
1.495124999999994486e+01 2.381215001245303491e-87
1.516499999999994941e+01 -1.002600115610160311e-86
1.537874999999993975e+01 -2.686212311874497411e-86
1.559249999999994429e+01 -4.563806154273589115e-86
1.580624999999994884e+01 -6.178966232950521907e-86
1.601999999999993918e+01 -6.884728322439963793e-86
1.623374999999994373e+01 -5.928834213224851635e-86
1.644749999999994827e+01 -2.620990856965092136e-86
1.666124999999993861e+01 3.421359493200427514e-86
1.687499999999994316e+01 1.197827264013480831e-85
1.708874999999994770e+01 2.194494784502818807e-85
1.730249999999993804e+01 3.115453764912850271e-85
1.751624999999994259e+01 3.641978528008558398e-85
1.772999999999994714e+01 3.390537554025909041e-85
1.794374999999993747e+01 1.990621303787345509e-85
1.815749999999994202e+01 -7.973134810208158202e-86
1.837124999999994657e+01 -4.936582375868419022e-85
1.858499999999993690e+01 -9.969826416417615291e-85
1.879874999999994145e+01 -1.491890263591994876e-84
1.901249999999994600e+01 -1.828349694396739579e-84
1.922624999999993634e+01 -1.819344013750761453e-84
1.943999999999994088e+01 -1.275425094056657376e-84
1.965374999999994543e+01 -5.897926859772479810e-86
1.986749999999993577e+01 1.847022722723994025e-84
2.008124999999994031e+01 4.268127977494631703e-84
2.029499999999994486e+01 6.784993893385280175e-84
2.050874999999993520e+01 8.722548625835508200e-84
2.072249999999993975e+01 9.207777866568758367e-84
2.093624999999994429e+01 7.316057479701861447e-84
2.114999999999993463e+01 2.310722419360098377e-84
2.136374999999993918e+01 -6.044096537927905305e-84
2.157749999999994373e+01 -1.714917956075537132e-83
2.179124999999993406e+01 -2.929978505007587366e-83
2.200499999999993861e+01 -3.959067957840674593e-83
2.221874999999994316e+01 -4.411590339544812494e-83
2.243249999999993349e+01 -3.855972087442793538e-83
2.264624999999993804e+01 -1.921272578089020882e-83
2.285999999999994259e+01 1.565745412444602154e-83
2.307374999999993292e+01 6.428944358373135419e-83
2.328749999999993747e+01 1.201229691112369845e-82
2.350124999999994202e+01 1.711855641869054816e-82
2.371499999999993236e+01 2.006993363796101623e-82
2.392874999999993690e+01 1.893574461183013776e-82
2.414249999999994145e+01 1.194734119681540806e-82
2.435624999999993179e+01 -1.922251932443541582e-83
2.456999999999993634e+01 -2.229464252055461981e-82
2.478374999999994088e+01 -4.678331903147138359e-82
2.499749999999993122e+01 -7.065233404893040619e-82
2.521124999999993577e+01 -8.696338095907721447e-82
2.542499999999994031e+01 -8.741371728547664214e-82
2.563874999999993065e+01 -6.397353543635723716e-82
2.585249999999993520e+01 -1.126034917599350312e-82
2.606624999999993975e+01 7.065011682030853015e-82
2.627999999999994429e+01 1.735481063661930884e-81
2.649374999999993463e+01 2.793645473521556144e-81
2.670749999999993918e+01 3.603464754564683009e-81
2.692124999999994373e+01 3.820173579170862633e-81
2.713499999999993406e+01 3.094600344595692896e-81
2.734874999999993861e+01 1.167930804536751669e-81
2.756249999999994316e+01 -2.012453223829977290e-81
2.777624999999993349e+01 -6.178114347300107188e-81
2.798999999999993804e+01 -1.065820967226632031e-80
2.820374999999994259e+01 -1.437064888841235712e-80
2.841749999999993292e+01 -1.592345205529339201e-80
2.863124999999993747e+01 -1.385149777974798056e-80
2.884499999999994202e+01 -6.988213307234661145e-81
2.905874999999993236e+01 5.066223643935704678e-81
2.927249999999993690e+01 2.146427962717732530e-80
2.948624999999994145e+01 3.974647071241384496e-80
2.969999999999993179e+01 5.575102173171866747e-80
2.991374999999993634e+01 6.395594769986759350e-80
3.012749999999994088e+01 5.836718645567107645e-80
3.034124999999993122e+01 3.396823274284513061e-80
3.055499999999993577e+01 -1.140367644443286023e-80
3.076874999999994031e+01 -7.507559425899806752e-80
3.098249999999993065e+01 -1.479581103314139828e-79
3.119624999999993520e+01 -2.140071317457340516e-79
3.140999999999993975e+01 -2.513885446477730080e-79
3.162374999999993008e+01 -2.358477451694285483e-79
3.183749999999993463e+01 -1.464076739090293294e-79
3.205124999999993918e+01 2.708084970216215028e-80
3.226499999999992951e+01 2.757735675011743642e-79
3.247874999999993406e+01 5.650749114182186788e-79
3.269249999999993861e+01 8.319107345651333323e-79
3.290624999999992895e+01 9.888055897380726128e-79
3.311999999999993349e+01 9.369735739405951913e-79
3.333374999999993804e+01 5.891538610479748035e-79
3.354749999999992838e+01 -9.950474812910552437e-80
3.376124999999993292e+01 -1.097365188142586998e-78
3.397499999999993747e+01 -2.267241624661464667e-78
3.418874999999992781e+01 -3.353263761674328579e-78
3.440249999999993236e+01 -3.995497154106028882e-78
3.461624999999993690e+01 -3.782142985496699092e-78
3.482999999999992724e+01 -2.343287203933799137e-78
3.504374999999993179e+01 5.198075287579368916e-79
3.525749999999993634e+01 4.689209441622524576e-78
3.547124999999992667e+01 9.602545195783390856e-78
3.568499999999993122e+01 1.418913061533817434e-77
3.589874999999993577e+01 1.692141933998171416e-77
3.611249999999992610e+01 1.602626635998628445e-77
3.632624999999993065e+01 9.877178270087699465e-78
3.653999999999993520e+01 -2.452745006912328743e-78
3.675374999999992554e+01 -2.055449556121466392e-77
3.696749999999993008e+01 -4.210497783093071622e-77
3.718124999999993463e+01 -6.254504828267941650e-77
3.739499999999992497e+01 -7.524059985210153082e-77
3.760874999999992951e+01 -7.233175051895067370e-77
3.782249999999993406e+01 -4.638304130244509206e-77
3.803624999999993861e+01 7.224940824023751653e-78
3.824999999999994316e+01 8.746696081565158430e-77
3.846374999999991928e+01 1.849963966907332148e-76
3.867749999999992383e+01 2.804720080838616547e-76
3.889124999999992838e+01 3.448945512338164622e-76
3.910499999999993292e+01 3.429059476218844314e-76
3.931874999999993747e+01 2.396494208210268880e-76
3.953249999999994202e+01 1.108004442153305485e-77
3.974624999999991815e+01 -3.434291065648171779e-76
3.995999999999992269e+01 -7.885945742913711982e-76
4.017374999999992724e+01 -1.244469128816361607e-75
4.038749999999993179e+01 -1.585863988534461485e-75
4.060124999999993634e+01 -1.654352089445507291e-75
4.081499999999994088e+01 -1.285961041812971606e-75
4.102874999999991701e+01 -3.548216482799309410e-76
4.124249999999992156e+01 1.171336572022310329e-75
4.145624999999992610e+01 3.173403129059567874e-75
4.166999999999993065e+01 5.335917946889612366e-75
4.188374999999993520e+01 7.134130643879229437e-75
4.209749999999993975e+01 7.873111006768089555e-75
4.231124999999991587e+01 6.794540729307182675e-75
4.252499999999992042e+01 3.255828171934236265e-75
4.273874999999992497e+01 -3.031640638476676265e-75
4.295249999999992951e+01 -1.174142623898265422e-74
4.316624999999993406e+01 -2.170907499724815880e-74
4.337999999999993861e+01 -3.082824615483558676e-74
4.359374999999991473e+01 -3.615448838908908238e-74
4.380749999999991928e+01 -3.429209381725829066e-74
4.402124999999992383e+01 -2.209897841354991523e-74
4.423499999999992838e+01 2.325603058829974309e-75
4.444874999999993292e+01 3.850076505582563250e-74
4.466249999999993747e+01 8.250744519955581166e-74
4.487624999999991360e+01 1.263452511654643253e-73
4.508999999999991815e+01 1.580811467947398215e-73
4.530374999999992269e+01 1.631377202345743620e-73
4.551749999999992724e+01 1.269284534085056014e-73
4.573124999999993179e+01 3.878279375649941251e-74
4.594499999999993634e+01 -1.032729128471319917e-73
4.615874999999991246e+01 -2.877529298954726486e-73
4.637249999999991701e+01 -4.862574555666063380e-73
4.658624999999992156e+01 -6.528806524043700217e-73
4.679999999999992610e+01 -7.280095812166568179e-73
4.701374999999993065e+01 -6.475923701017172505e-73
4.722749999999993520e+01 -3.580024428543971145e-73
4.744124999999993975e+01 1.648077132190077418e-73
4.765499999999991587e+01 8.949264618370766517e-73
4.786874999999992042e+01 1.739701003743510020e-72
4.808249999999992497e+01 2.532675589539533649e-72
4.829624999999992951e+01 3.042646380790643183e-72
4.850999999999993406e+01 3.003935300952206946e-72
4.872374999999993861e+01 2.169745659914411704e-72
4.893749999999991473e+01 3.852448316939743572e-73
4.915124999999991928e+01 -2.329698866730379403e-72
4.936499999999992383e+01 -5.705325771925367488e-72
4.957874999999992838e+01 -9.177387288946636467e-72
4.979249999999993292e+01 -1.189863616719551153e-71
5.000624999999993747e+01 -1.282878316778073893e-71
5.021999999999991360e+01 -1.091494326458076061e-71
5.043374999999991815e+01 -5.356481346237184452e-72
5.064749999999992269e+01 4.076420678311485044e-72
5.086124999999992724e+01 1.672867450331967728e-71
5.107499999999993179e+01 3.083346221135789250e-71
5.128874999999993634e+01 4.346945561495151565e-71
5.150249999999991246e+01 5.079398251352258245e-71
5.171624999999991701e+01 4.861336091311026149e-71
5.192999999999992156e+01 3.329185702652470816e-71
5.214374999999992610e+01 2.914719475311631917e-72
5.235749999999993065e+01 -4.148065685380725085e-71
5.257124999999993520e+01 -9.488872713909006079e-71
5.278499999999991132e+01 -1.478848349337218301e-70
5.299874999999991587e+01 -1.870948924616926852e-70
5.321249999999992042e+01 -1.968589110877030162e-70
5.342624999999992497e+01 -1.621749561600908534e-70
5.363999999999992951e+01 -7.272298865755937185e-71
5.385374999999993406e+01 7.258853863614741398e-71
5.406749999999991019e+01 2.614749360425981141e-70
5.428124999999991473e+01 4.657312056194666382e-70
5.449499999999991928e+01 6.415931612622686562e-70
5.470874999999992383e+01 7.341142360633261870e-70
5.492249999999992838e+01 6.861200203050196447e-70
5.513624999999993292e+01 4.513889901301762249e-70
5.534999999999990905e+01 1.051058987603512792e-71
5.556374999999991360e+01 -6.134232706550002938e-70
5.577749999999991815e+01 -1.343244737199163486e-69
5.599124999999992269e+01 -2.044773183706555821e-69
5.620499999999992724e+01 -2.536702735719082307e-69
5.641874999999993179e+01 -2.615997880869325327e-69
5.663249999999990791e+01 -2.098713959869904710e-69
5.684624999999991246e+01 -8.723199135331053298e-70
5.705999999999991701e+01 1.048777945545734604e-69
5.727374999999992156e+01 3.476853694061603909e-69
5.748749999999992610e+01 6.028533755092682401e-69
5.770124999999993065e+01 8.141326796532085441e-69
5.791499999999990678e+01 9.140018756410138706e-69
5.812874999999991132e+01 8.355974745812014364e-69
5.834249999999991587e+01 5.290623415177535304e-69
5.855624999999992042e+01 -1.997174239193541230e-70
5.876999999999992497e+01 -7.734399660245214423e-69
5.898374999999992951e+01 -1.630126303525144162e-68
5.919749999999990564e+01 -2.426109945992094085e-68
5.941124999999991019e+01 -2.950454279873419364e-68
5.962499999999991473e+01 -2.978039141200756094e-68
5.983874999999991928e+01 -2.317986882577229931e-68
6.005249999999992383e+01 -8.717822663908829395e-69
6.026624999999992838e+01 1.309333113940718958e-68
6.047999999999990450e+01 3.981757197114854119e-68
6.069374999999990905e+01 6.697343002501164355e-68
6.090749999999991360e+01 8.835601524583075620e-68
6.112124999999991815e+01 9.688611306134037571e-68
6.133499999999992269e+01 8.597250759171302041e-68
6.154874999999992724e+01 5.124513960610630823e-68
6.176249999999993179e+01 -7.623395400256250173e-69
6.197624999999990791e+01 -8.541221270315705688e-68
6.218999999999991246e+01 -1.706337656594788767e-67
6.240374999999991701e+01 -2.460511738444965768e-67
6.261749999999992156e+01 -2.907403328211758686e-67
6.283124999999992610e+01 -2.837430318886088659e-67
6.304499999999993065e+01 -2.089914885733122170e-67
6.325874999999990678e+01 -6.076875742886621198e-68
6.347249999999991132e+01 1.514131329651265627e-67
6.368624999999991587e+01 3.998803447730159161e-67
6.389999999999992042e+01 6.391729287961172174e-67
6.411374999999992497e+01 8.107635496533349839e-67
6.432749999999992951e+01 8.524629845593408650e-67
6.454124999999990564e+01 7.118472249337290090e-67
6.475499999999991019e+01 3.618503596217160647e-67
6.496874999999991473e+01 -1.844776363028405329e-67
6.518249999999991928e+01 -8.638549587250829848e-67
6.539624999999992383e+01 -1.561256847609873248e-66
6.560999999999992838e+01 -2.120221791474251768e-66
6.582374999999990450e+01 -2.366408050572082760e-66
6.603749999999990905e+01 -2.143112691893086001e-66
6.625124999999991360e+01 -1.354150762533623369e-66
6.646499999999991815e+01 -6.193353894279991374e-69
6.667874999999992269e+01 1.759809899046143966e-66
6.689249999999992724e+01 3.659266985765925904e-66
6.710624999999990337e+01 5.286090608819467612e-66
6.731999999999990791e+01 6.171254322129388707e-66
6.753374999999991246e+01 5.875402739530595903e-66
6.774749999999991701e+01 4.104090674997564298e-66
6.796124999999992156e+01 8.249610838793832279e-67
6.817499999999992610e+01 -3.641078125727268147e-66
6.838874999999990223e+01 -8.585403716807705771e-66
6.860249999999990678e+01 -1.296083520681417463e-65
6.881624999999991132e+01 -1.552956125383934016e-65
6.902999999999991587e+01 -1.510567011171995438e-65
6.924374999999992042e+01 -1.086343886806255083e-65
6.945749999999992497e+01 -2.656812477978074890e-66
6.967124999999990109e+01 8.725254998342527476e-66
6.988499999999990564e+01 2.145193670516950085e-65
7.009874999999991019e+01 3.276761505618550231e-65
7.031249999999991473e+01 3.937786066100122574e-65
7.052624999999991928e+01 3.809743196150466095e-65
7.073999999999992383e+01 2.668599892795818596e-65
7.095374999999989996e+01 4.725762959545876769e-66
7.116749999999990450e+01 -2.566415891015308329e-65
7.138124999999990905e+01 -5.951001198413168276e-65
7.159499999999991360e+01 -8.927564566103094195e-65
7.180874999999991815e+01 -1.058981892282935521e-64
7.202249999999992269e+01 -1.005607567489385097e-64
7.223624999999989882e+01 -6.701021214464575336e-65
7.244999999999990337e+01 -4.027200820776928381e-66
7.266374999999990791e+01 8.251603353915748820e-65
7.287749999999991246e+01 1.786649372066320764e-64
7.309124999999991701e+01 2.630733650112277577e-64
7.330499999999992156e+01 3.097842475709498116e-64
7.351874999999989768e+01 2.931323572805768317e-64
7.373249999999990223e+01 1.942889796841434284e-64
7.394624999999990678e+01 8.399344138219631352e-66
7.415999999999991132e+01 -2.492421348740823747e-64
7.437374999999991587e+01 -5.398318868128058209e-64
7.458749999999992042e+01 -8.023135348195163456e-64
7.480124999999992497e+01 -9.605440861059473540e-64
7.501499999999990109e+01 -9.366700064544237524e-64
7.522874999999990564e+01 -6.696103514285128288e-64
7.544249999999991019e+01 -1.359323530728259198e-64
7.565624999999991473e+01 6.310986055752466927e-64
7.586999999999991928e+01 1.529511422965830643e-63
7.608374999999992383e+01 2.388967875694766119e-63
7.629749999999989996e+01 2.987602183907168661e-63
7.651124999999990450e+01 3.086994302346672033e-63
7.672499999999990905e+01 2.483157784476272096e-63
7.693874999999991360e+01 1.066922197178113855e-63
7.715249999999991815e+01 -1.117345227288759666e-63
7.736624999999992269e+01 -3.829039454365402930e-63
7.757999999999989882e+01 -6.620030794912086811e-63
7.779374999999990337e+01 -8.867957141505457467e-63
7.800749999999990791e+01 -9.861239040247007020e-63
7.822124999999991246e+01 -8.933314669312302934e-63
7.843499999999991701e+01 -5.631388565446542861e-63
7.864874999999992156e+01 1.077709739293271364e-64
7.886249999999989768e+01 7.813000516402599988e-63
7.907624999999990223e+01 1.640810036355082555e-62
7.928999999999990678e+01 2.425558727412721875e-62
7.950374999999991132e+01 2.934188425311381732e-62
7.971749999999991587e+01 2.960750378301516217e-62
7.993124999999992042e+01 2.339408016567117465e-62
8.014499999999989654e+01 9.944830381631388390e-63
8.035874999999990109e+01 -1.013694615567564383e-62
8.057249999999990564e+01 -3.458713182822860605e-62
8.078624999999991019e+01 -5.945432101015269477e-62
8.099999999999991473e+01 -7.943891007100224346e-62
8.121374999999991928e+01 -8.863569118005578939e-62
8.142749999999989541e+01 -8.163982111979128606e-62
8.164124999999989996e+01 -5.488323526390765275e-62
8.185499999999990450e+01 -7.977331748110382393e-63
8.206874999999990905e+01 5.523115217555481788e-62
8.228249999999991360e+01 1.262087490162214610e-61
8.249624999999991815e+01 1.921677583059512012e-61
8.270999999999989427e+01 2.375508505453146797e-61
8.292374999999989882e+01 2.465551252077424713e-61
8.313749999999990337e+01 2.064520337242072973e-61
8.335124999999990791e+01 1.112149718087369165e-61
8.356499999999991246e+01 -3.524201435088636526e-62
8.377874999999991701e+01 -2.170268366452469548e-61
8.399249999999989313e+01 -4.062172009210160062e-61
8.420624999999989768e+01 -5.653698412484270861e-61
8.441999999999990223e+01 -6.527751311456595399e-61
8.463374999999990678e+01 -6.300983068708862405e-61
8.484749999999991132e+01 -4.714317830809553392e-61
8.506124999999991587e+01 -1.722065027073561817e-61
8.527499999999989200e+01 2.439888273348098226e-61
8.548874999999989654e+01 7.227170372229588013e-61
8.570249999999990109e+01 1.181833015402801802e-60
8.591624999999990564e+01 1.521363155882098128e-60
8.612999999999991019e+01 1.639822628168768496e-60
8.634374999999991473e+01 1.455197939714776139e-60
8.655749999999989086e+01 9.273383626249849583e-61
8.677124999999989541e+01 7.732441392520637808e-62
8.698499999999989996e+01 -1.001144896308888582e-60
8.719874999999990450e+01 -2.142891876655497291e-60
8.741249999999990905e+01 -3.127959452458536259e-60
8.762624999999991360e+01 -3.714324501986029949e-60
8.783999999999991815e+01 -3.683718082538719546e-60
8.805374999999989427e+01 -2.894028766440823705e-60
8.826749999999989882e+01 -1.328621080782604656e-60
8.848124999999990337e+01 8.689522477860293077e-61
8.869499999999990791e+01 3.386174719675023140e-60
8.890874999999991246e+01 5.767319340773018408e-60
8.912249999999991701e+01 7.476962703094310441e-60
8.933624999999989313e+01 7.996996568691367780e-60
8.954999999999989768e+01 6.944335492159675548e-60
8.976374999999990223e+01 4.188556554719847347e-60
8.997749999999990678e+01 -5.675135482133008576e-62
9.019124999999991132e+01 -5.196213320751192598e-60
9.040499999999991587e+01 -1.029099287782274262e-59
9.061874999999989200e+01 -1.418463974555172354e-59
9.083249999999989654e+01 -1.571120855232131529e-59
9.104624999999990109e+01 -1.396035780197727553e-59
9.125999999999990564e+01 -8.554316291891840825e-60
9.147374999999991019e+01 1.234835673656161225e-61
9.168749999999991473e+01 1.081394936197432051e-59
9.190124999999989086e+01 2.144018596996007543e-59
9.211499999999989541e+01 2.937273850691392895e-59
9.232874999999989996e+01 3.189973854049651208e-59
9.254249999999990450e+01 2.685178279165996105e-59
9.275624999999990905e+01 1.328140474345695354e-59
9.296999999999991360e+01 -7.944656964923706136e-60
9.318374999999988972e+01 -3.380377811181633387e-59
9.339749999999989427e+01 -5.918061733689239591e-59
9.361124999999989882e+01 -7.744269308610890509e-59
9.382499999999990337e+01 -8.155115445507514894e-59
9.403874999999990791e+01 -6.561448245232158825e-59
9.425249999999991246e+01 -2.666428193523138785e-59
9.446624999999988859e+01 3.368519357814655488e-59
9.467999999999989313e+01 1.081093064037446120e-58
9.489374999999989768e+01 1.834004505037196237e-58
9.510749999999990223e+01 2.415902380294419371e-58
9.532124999999990678e+01 2.625219553515907539e-58
9.553499999999991132e+01 2.277547214874295814e-58
9.574874999999988745e+01 1.253497111709739067e-58
9.596249999999989200e+01 -4.524442162325925707e-59
9.617624999999989654e+01 -2.692538381035983977e-58
9.638999999999990109e+01 -5.147539782657022429e-58
9.660374999999990564e+01 -7.340229677634207079e-58
9.681749999999991019e+01 -8.687848249608324654e-58
9.703124999999988631e+01 -8.594381992063841828e-58
9.724499999999989086e+01 -6.575453550748180373e-58
9.745874999999989541e+01 -2.399411715876448670e-58
9.767249999999989996e+01 3.780229334863700729e-58
9.788624999999990450e+01 1.133163133446634900e-57
9.809999999999990905e+01 1.912250842993510450e-57
9.831374999999988518e+01 2.559566827119162189e-57
9.852749999999988972e+01 2.895670041534876624e-57
9.874124999999989427e+01 2.746957059406803684e-57
9.895499999999989882e+01 1.983248839998468697e-57
9.916874999999990337e+01 5.581760837277354093e-58
9.938249999999990791e+01 -1.454994879270250063e-57
9.959624999999988404e+01 -3.840720605537276579e-57
9.980999999999988859e+01 -6.240250756225938183e-57
1.000237499999998931e+02 -8.179104015262037193e-57
1.002374999999998977e+02 -9.125944770967086712e-57
1.004512499999999022e+02 -8.580494741989401383e-57
1.006649999999999068e+02 -6.181680178229955176e-57
1.008787499999998829e+02 -1.820674114329598139e-57
1.010924999999998875e+02 4.261900916001544270e-57
1.013062499999998920e+02 1.141821313018831710e-56
1.015199999999998965e+02 1.859758530621218443e-56
1.017337499999999011e+02 2.443007051161123923e-56
1.019474999999999056e+02 2.739585362736596926e-56
1.021612499999999102e+02 2.607240965874598691e-56
1.023749999999998863e+02 1.943412920272219009e-56
1.025887499999998909e+02 7.161978017569158743e-57
1.028024999999998954e+02 -1.009299765262489792e-56
1.030162499999999000e+02 -3.055531691446940318e-56
1.032299999999999045e+02 -5.133952919243478053e-56
1.034437499999999091e+02 -6.867758582365615964e-56
1.036574999999998852e+02 -7.837502810185355709e-56
1.038712499999998897e+02 -7.647308663235458603e-56
1.040849999999998943e+02 -6.004883960956696603e-56
1.042987499999998988e+02 -2.804136543537779825e-56
1.045124999999999034e+02 1.804310375907378635e-56
1.047262499999999079e+02 7.371061887630560046e-56
1.049399999999998840e+02 1.314974388875095203e-55
1.051537499999998886e+02 1.815392828373991893e-55
1.053674999999998931e+02 2.127318492860070192e-55
1.055812499999998977e+02 2.144232248490327977e-55
1.057949999999999022e+02 1.784648748605805590e-55
1.060087499999999068e+02 1.013369851545510782e-55
1.062224999999998829e+02 -1.402242725916723393e-56
1.064362499999998875e+02 -1.570945574260926673e-55
1.066499999999998920e+02 -3.097460001208970871e-55
1.068637499999998965e+02 -4.475622562475350188e-55
1.070774999999999011e+02 -5.426442239946401425e-55
1.072912499999999056e+02 -5.677180768198191541e-55
1.075049999999998818e+02 -5.011314393264503829e-55
1.077187499999998863e+02 -3.320432278780806049e-55
1.079324999999998909e+02 -6.491366703355296789e-56
1.081462499999998954e+02 2.776818775192296111e-55
1.083599999999999000e+02 6.548127636217417344e-55
1.085737499999999045e+02 1.010160197977921301e-54
1.087874999999998806e+02 1.278382540972000981e-54
1.090012499999998852e+02 1.394490534158084268e-54
1.092149999999998897e+02 1.305206764616303793e-54
1.094287499999998943e+02 9.806957107812988995e-55
1.096424999999998988e+02 4.246352061994480727e-55
1.098562499999999034e+02 -3.195252127155781071e-55
1.100699999999998795e+02 -1.168021006494973394e-54
1.102837499999998840e+02 -2.003182137527563773e-54
1.104974999999998886e+02 -2.686997286054639547e-54
1.107112499999998931e+02 -3.080749436713472497e-54
1.109249999999998977e+02 -3.068303669321347474e-54
1.111387499999999022e+02 -2.579493914553193798e-54
1.113524999999998784e+02 -1.609389378434611198e-54
1.115662499999998829e+02 -2.292515986511869394e-55
1.117799999999998875e+02 1.414146233069905870e-54
1.119937499999998920e+02 3.112484717217725216e-54
1.122074999999998965e+02 4.622477837320328030e-54
1.124212499999999011e+02 5.701801421289703577e-54
1.126349999999998772e+02 6.148730295572911872e-54
1.128487499999998818e+02 5.838245926382219754e-54
1.130624999999998863e+02 4.747063274495116845e-54
1.132762499999998909e+02 2.961330699736473796e-54
1.134899999999998954e+02 6.637201756281628007e-55
1.137037499999999000e+02 -1.899087972659084133e-54
1.139174999999998761e+02 -4.462637926563876078e-54
1.141312499999998806e+02 -6.794330288800547657e-54
1.143449999999998852e+02 -8.733366358595189788e-54
1.145587499999998897e+02 -1.020793605048539166e-53
1.147724999999998943e+02 -1.122012820154781808e-53
1.149862499999998988e+02 -1.179619341802195010e-53
1.151999999999998749e+02 -1.190973681572357707e-53
1.154137499999998795e+02 -1.139640339390065903e-53
1.156274999999998840e+02 -9.888074575800265482e-54
1.158412499999998886e+02 -6.799517573057903226e-54
1.160549999999998931e+02 -1.397975560973857202e-54
1.162687499999998977e+02 7.025586838450328852e-54
1.164824999999999022e+02 1.888624067235153038e-53
1.166962499999998784e+02 3.396748392513505005e-53
1.169099999999998829e+02 5.107992474920728784e-53
1.171237499999998875e+02 6.780812751254808139e-53
1.173374999999998920e+02 8.045355715645500066e-53
1.175512499999998965e+02 8.427713072800341717e-53
1.177649999999999011e+02 7.411355352620403422e-53
1.179787499999998772e+02 4.536902120202616423e-53
1.181924999999998818e+02 -4.672404904429902368e-54
1.184062499999998863e+02 -7.540969533639781807e-53
1.186199999999998909e+02 -1.616274418285067328e-52
1.188337499999998954e+02 -2.526870634104977057e-52
1.190474999999999000e+02 -3.325748403112133276e-52
1.192612499999998761e+02 -3.811226110326380553e-52
1.194749999999998806e+02 -3.765771169903652429e-52
1.196887499999998852e+02 -2.994672466203950416e-52
1.199024999999998897e+02 -1.374243092953255222e-52
1.201162499999998943e+02 1.097108029132826395e-52
1.203299999999998988e+02 4.254491401659678376e-52
1.205437499999998749e+02 7.740259049834836566e-52
1.207574999999998795e+02 1.100736560051298312e-51
1.209712499999998840e+02 1.336167564425141598e-51
1.211849999999998886e+02 1.404767865374697852e-51
1.213987499999998931e+02 1.237477200143261793e-51
1.216124999999998977e+02 7.872236514770531534e-52
1.218262499999998738e+02 4.515484793036611844e-53
1.220399999999998784e+02 -9.453482647793668550e-52
1.222537499999998829e+02 -2.080305716768687225e-51
1.224674999999998875e+02 -3.195798792979504284e-51
1.226812499999998920e+02 -4.080301169772012453e-51
1.228949999999998965e+02 -4.499856120705533093e-51
1.231087499999998727e+02 -4.235141699599606968e-51
1.233224999999998772e+02 -3.126893344147273918e-51
1.235362499999998818e+02 -1.123516191106326930e-51
1.237499999999998863e+02 1.677489523920876061e-51
1.239637499999998909e+02 5.003899427414911274e-51
1.241774999999998954e+02 8.408287286513239056e-51
1.243912499999998715e+02 1.129994649259493902e-50
1.246049999999998761e+02 1.301238993618176241e-50
1.248187499999998806e+02 1.290381438673748828e-50
1.250324999999998852e+02 1.048102868194793332e-50
1.252462499999998897e+02 5.530372189260595686e-51
1.254599999999998943e+02 -1.766617077065263512e-51
1.256737499999998704e+02 -1.075818224232103113e-50
1.258874999999998749e+02 -2.031263991134829748e-50
1.261012499999998795e+02 -2.889314619714679328e-50
1.263149999999998840e+02 -3.472561003635797219e-50
1.265287499999998886e+02 -3.605361968991692954e-50
1.267424999999998931e+02 -3.145675868746680204e-50