2.024999999999579359e-01 -4.271526613351539902e-100
4.162499999999482725e-01 -7.628937293984701013e-100
6.299999999999528200e-01 -1.094298924235032010e-99
8.437499999999573674e-01 -1.286295035863485233e-99
1.057499999999947704e+00 -1.140319340528662652e-99
1.271249999999952252e+00 -4.171532882460200936e-100
1.484999999999956799e+00 1.104513729299652443e-99
1.698749999999947136e+00 3.525983918041643278e-99
1.912499999999951683e+00 6.685430606893476887e-99
2.126249999999956231e+00 9.994380822288000650e-99
2.339999999999946567e+00 1.229984943348332722e-98
2.553749999999951115e+00 1.184723216979751173e-98
2.767499999999955662e+00 6.443589727342039368e-99
2.981249999999945999e+00 -6.072279124370860096e-99
3.194999999999950546e+00 -2.697496538412947345e-98
3.408749999999955094e+00 -5.541665657469088900e-98
3.622499999999945430e+00 -8.696276851788047172e-98
3.836249999999949978e+00 -1.122649090219645587e-97
4.049999999999954525e+00 -1.164883228001088813e-97
4.263749999999944862e+00 -8.033578012320018866e-98
4.477499999999949409e+00 1.639821158445290648e-98
4.691249999999953957e+00 1.879930738672619798e-97
4.904999999999944293e+00 4.325536069567069018e-97
5.118749999999948841e+00 7.193804268299836788e-97
5.332499999999953388e+00 9.767222687543911076e-97
5.546249999999943725e+00 1.084775057854930537e-96
5.759999999999948272e+00 8.807861053114525988e-97
5.973749999999952820e+00 1.841810839797017172e-97
6.187499999999943157e+00 -1.151382674515878240e-96
6.401249999999947704e+00 -3.156502019275712004e-96
6.614999999999952252e+00 -5.641306935303488994e-96
6.828749999999942588e+00 -8.087280327833546897e-96
7.042499999999947136e+00 -9.572354159296845850e-96
7.256249999999951683e+00 -8.783058706310817696e-96
7.469999999999942020e+00 -4.178434726808017694e-96
7.683749999999946567e+00 5.633523539769629030e-96
7.897499999999951115e+00 2.127516304614549792e-95
8.111249999999941451e+00 4.176570559795496710e-95
8.324999999999945999e+00 6.360778177905429017e-95
8.538749999999950546e+00 8.005912062564778781e-95
8.752499999999940883e+00 8.099467771490386782e-95
8.966249999999945430e+00 5.386814307675694576e-95
9.179999999999949978e+00 -1.371616252850851660e-95
9.393749999999940314e+00 -1.294882999436510593e-94
9.607499999999944862e+00 -2.901553879379783669e-94
9.821249999999949409e+00 -4.740324622251788193e-94
1.003499999999993975e+01 -6.344855323209788037e-94
1.024874999999994429e+01 -6.971175658465037845e-94
1.046249999999994884e+01 -5.645438180890497624e-94
1.067624999999993918e+01 -1.328612153785352685e-94
1.088999999999994373e+01 6.770687038542817613e-94
1.110374999999994827e+01 1.873222200077177872e-93
1.131749999999993861e+01 3.335641148648286268e-93
1.153124999999994316e+01 4.761194446700645572e-93
1.174499999999994770e+01 5.630168620004077253e-93
1.195874999999993804e+01 5.222585267745075948e-93
1.217249999999994259e+01 2.715744455050487436e-93
1.238624999999994714e+01 -2.610108387661879916e-93
1.259999999999993747e+01 -1.104836033454482183e-92
1.281374999999994202e+01 -2.204852200356026291e-92
1.302749999999994657e+01 -3.377795618518314910e-92
1.324124999999995111e+01 -4.279712385294632035e-92
1.345499999999994145e+01 -4.404227702172249675e-92
1.366874999999994600e+01 -3.134656735341807169e-92
1.388249999999995055e+01 1.284039784842584280e-93
1.409624999999994088e+01 5.752222518674636269e-92
1.430999999999994543e+01 1.357900250853253359e-91
1.452374999999994998e+01 2.259704316197894186e-91
1.473749999999994031e+01 3.066060917611957739e-91
1.495124999999994486e+01 3.438753755982047594e-91
1.516499999999994941e+01 2.939642024379762565e-91
1.537874999999993975e+01 1.104716254383876653e-91
1.559249999999994429e+01 -2.420270036013617328e-91
1.580624999999994884e+01 -7.683889340954741569e-91
1.601999999999993918e+01 -1.419510413071306642e-90
1.623374999999994373e+01 -2.070188549929073008e-90
1.644749999999994827e+01 -2.506441337059935760e-90
1.666124999999993861e+01 -2.433121046703524679e-90
1.687499999999994316e+01 -1.513548698306999000e-90
1.708874999999994770e+01 5.494540518411384331e-91
1.730249999999993804e+01 3.888827119520830430e-90
1.751624999999994259e+01 8.315238501860944550e-90
1.772999999999994714e+01 1.315425354645258432e-89
1.794374999999993747e+01 1.712842758511060876e-89
1.815749999999994202e+01 1.835360891529119091e-89
1.837124999999994657e+01 1.452913749447958872e-89
1.858499999999993690e+01 3.393228862465250179e-90
1.879874999999994145e+01 -1.652238774804425621e-89
1.901249999999994600e+01 -4.487799649504701104e-89
1.922624999999993634e+01 -7.840146242813654962e-89
1.943999999999994088e+01 -1.099403493076513099e-88
1.965374999999994543e+01 -1.281134491877465536e-88
1.986749999999993577e+01 -1.180766212848218585e-88
2.008124999999994031e+01 -6.390647307974636714e-89
2.029499999999994486e+01 4.707445642342803062e-89
2.050874999999993520e+01 2.181099482055985815e-88
2.072249999999993975e+01 4.356828408389089798e-88
2.093624999999994429e+01 6.626110617344193829e-88
2.114999999999993463e+01 8.340269377820704797e-88
2.136374999999993918e+01 8.594075725604038342e-88
2.157749999999994373e+01 6.339949144564667918e-88
2.179124999999993406e+01 6.217448237585520593e-89
2.200499999999993861e+01 -9.066964061560280744e-88
2.221874999999994316e+01 -2.233099961772648923e-87
2.243249999999993349e+01 -3.740825091851868961e-87
2.264624999999993804e+01 -5.082704859223361300e-87
2.285999999999994259e+01 -5.737188411571879803e-87
2.307374999999993292e+01 -5.056654423492093436e-87
2.328749999999993747e+01 -2.385718067970484505e-87
2.350124999999994202e+01 2.742220859940329569e-87
2.371499999999993236e+01 1.034084979710823912e-86
2.392874999999993690e+01 1.967748394053587581e-86
2.414249999999994145e+01 2.902173792709387452e-86
2.435624999999993179e+01 3.553992876345687924e-86
2.456999999999993634e+01 3.545931449743382971e-86
2.478374999999994088e+01 2.462159099162127710e-86
2.499749999999993122e+01 -4.990364435797966566e-88
2.521124999999993577e+01 -4.133239155676896271e-86
2.542499999999994031e+01 -9.546989580086046901e-86
2.563874999999993065e+01 -1.549972412868520380e-85
2.585249999999993520e+01 -2.054521410819003911e-85
2.606624999999993975e+01 -2.261069183584062500e-85
2.627999999999994429e+01 -1.923058647990731113e-85
2.649374999999993463e+01 -8.041586442514815142e-86
2.670749999999993918e+01 1.244950228517696847e-85
2.692124999999994373e+01 4.188838962090727210e-85
2.713499999999993406e+01 7.705074046784175458e-85
2.734874999999993861e+01 1.110515632441343984e-84
2.756249999999994316e+01 1.331616630914943658e-84
2.777624999999993349e+01 1.296512521937199841e-84
2.798999999999993804e+01 8.602778099593990426e-85
2.820374999999994259e+01 -9.158499988963124147e-86
2.841749999999993292e+01 -1.591277030714347639e-84
2.863124999999993747e+01 -3.530067841080291162e-84
2.884499999999994202e+01 -5.606103052441300488e-84
2.905874999999993236e+01 -7.297769170743743102e-84
2.927249999999993690e+01 -7.885485130765591697e-84
2.948624999999994145e+01 -6.544036158266780235e-84
2.969999999999993179e+01 -2.519897260710249694e-84
2.991374999999993634e+01 4.608359243147693095e-84
3.012749999999994088e+01 1.461376496255217963e-83
3.034124999999993122e+01 2.630796180769125588e-83
3.055499999999993577e+01 3.732397835841857510e-83
3.076874999999994031e+01 4.411283289742267235e-83
3.098249999999993065e+01 4.227811891245185696e-83
3.119624999999993520e+01 2.734644734351386304e-83
3.140999999999993975e+01 -3.997869702143723854e-84
3.162374999999993008e+01 -5.230267351764275514e-83
3.183749999999993463e+01 -1.136092041325550525e-82
3.205124999999993918e+01 -1.780082149872038269e-82
3.226499999999992951e+01 -2.290693839786176744e-82
3.247874999999993406e+01 -2.447992001076278237e-82
3.269249999999993861e+01 -2.007154094320402058e-82
3.290624999999992895e+01 -7.535411557646941849e-83
3.311999999999993349e+01 1.419876844772686014e-82
3.333374999999993804e+01 4.422138291106623928e-82
3.354749999999992838e+01 7.879223056514218985e-82
3.376124999999993292e+01 1.108118808056810709e-81
3.397499999999993747e+01 1.299416295846680049e-81
3.418874999999992781e+01 1.236960574932151466e-81
3.440249999999993236e+01 7.973712766351489123e-82
3.461624999999993690e+01 -1.061244215412696549e-82
3.482999999999992724e+01 -1.479499335579757461e-81
3.504374999999993179e+01 -3.202041348551860399e-81
3.525749999999993634e+01 -4.990608896210470655e-81
3.547124999999992667e+01 -6.389439545518582561e-81
3.568499999999993122e+01 -6.802143198684488151e-81
3.589874999999993577e+01 -5.579765972696755277e-81
3.611249999999992610e+01 -2.170747018279271618e-81
3.632624999999993065e+01 3.675386745745068293e-81
3.653999999999993520e+01 1.167790358033164225e-80
3.675374999999992554e+01 2.081743534659928584e-80
3.696749999999993008e+01 2.922013946830030968e-80
3.718124999999993463e+01 3.421366847466466562e-80
3.739499999999992497e+01 3.263040525971284035e-80
3.760874999999992951e+01 2.140550297276774645e-80
3.782249999999993406e+01 -1.538252464555596797e-81
3.803624999999993861e+01 -3.620903724671765366e-80
3.824999999999994316e+01 -7.945881570226985179e-80
3.846374999999991928e+01 -1.241818747884224660e-79
3.867749999999992383e+01 -1.591641525775469471e-79
3.889124999999992838e+01 -1.699610114533828895e-79
3.910499999999993292e+01 -1.410978964254098165e-79
3.931874999999993747e+01 -5.968286526239777089e-80
3.953249999999994202e+01 7.981453423863767539e-80
3.974624999999991815e+01 2.703024877355760400e-79
3.995999999999992269e+01 4.874866918963967506e-79
4.017374999999992724e+01 6.875413732931357466e-79
4.038749999999993179e+01 8.087958272135039884e-79
4.060124999999993634e+01 7.790198001467061057e-79
4.081499999999994088e+01 5.291961027381355755e-79
4.102874999999991701e+01 1.338859246510587468e-80
4.124249999999992156e+01 -7.675021571512769361e-79
4.145624999999992610e+01 -1.742437124343252035e-78
4.166999999999993065e+01 -2.753774813315598441e-78
4.188374999999993520e+01 -3.555391259556846719e-78
4.209749999999993975e+01 -3.833116880149212892e-78
4.231124999999991587e+01 -3.253160247214496079e-78
4.252499999999992042e+01 -1.539617178735777909e-78
4.273874999999992497e+01 1.424937575112743912e-78
4.295249999999992951e+01 5.490771856585177689e-78
4.316624999999993406e+01 1.014866614520302562e-77
4.337999999999993861e+01 1.448599090658300405e-77
4.359374999999991473e+01 1.722618074051777259e-77
4.380749999999991928e+01 1.688180332163446546e-77
4.402124999999992383e+01 1.203644748521643999e-77
4.423499999999992838e+01 1.744525252155907331e-78
4.444874999999993292e+01 -1.399772838194889375e-77
4.466249999999993747e+01 -3.379756703091312682e-77
4.487624999999991360e+01 -5.455241547735605219e-77
4.508999999999991815e+01 -7.142601989361167652e-77
4.530374999999992269e+01 -7.825786618390439395e-77
4.551749999999992724e+01 -6.850626969242414307e-77
4.573124999999993179e+01 -3.673586794394432350e-77
4.594499999999993634e+01 1.947427810027505311e-77
4.615874999999991246e+01 9.749150750405258047e-77
4.637249999999991701e+01 1.879177791718450570e-76
4.658624999999992156e+01 2.737940838155826407e-76
4.679999999999992610e+01 3.313503268420762545e-76
4.701374999999993065e+01 3.328287847538351612e-76
4.722749999999993520e+01 2.516270006745351631e-76
4.744124999999993975e+01 6.953145422884068936e-77
4.765499999999991587e+01 -2.148208457768084497e-76
4.786874999999992042e+01 -5.778214320522752862e-76
4.808249999999992497e+01 -9.653097132665377295e-76
4.829624999999992951e+01 -1.292094956332757824e-75
4.850999999999993406e+01 -1.449024938692543651e-75
4.872374999999993861e+01 -1.319258691174805409e-75
4.893749999999991473e+01 -8.038435050517371334e-76
4.915124999999991928e+01 1.455856048373523624e-76
4.936499999999992383e+01 1.491923898797134555e-75
4.957874999999992838e+01 3.083227925287195398e-75
4.979249999999993292e+01 4.638618242439827552e-75
5.000624999999993747e+01 5.759761658262673641e-75
5.021999999999991360e+01 5.976470755366196678e-75
5.043374999999991815e+01 4.830288934610406487e-75
5.064749999999992269e+01 1.992247592816270860e-75
5.086124999999992724e+01 -2.599124976438652186e-75
5.107499999999993179e+01 -8.604552421138379019e-75
5.128874999999993634e+01 -1.519028524717840965e-74
5.150249999999991246e+01 -2.101411634174237013e-74
5.171624999999991701e+01 -2.432928209772552080e-74
5.192999999999992156e+01 -2.323208177338791973e-74
5.214374999999992610e+01 -1.605511668011960671e-74
5.235749999999993065e+01 -1.873389771029140227e-75
5.257124999999993520e+01 1.895098968632874731e-74
5.278499999999991132e+01 4.430086544869852652e-74
5.299874999999991587e+01 7.005878669640727770e-74
5.321249999999992042e+01 9.023850671165164884e-74
5.342624999999992497e+01 9.762155893536441441e-74
5.363999999999992951e+01 8.495970752346792718e-74
5.385374999999993406e+01 4.669356899255104116e-74
5.406749999999991019e+01 -1.900701012748472910e-74
5.428124999999991473e+01 -1.082335231905773825e-73
5.449499999999991928e+01 -2.098524781643910023e-73
5.470874999999992383e+01 -3.051137551714879356e-73
5.492249999999992838e+01 -3.689009545187137939e-73
5.513624999999993292e+01 -3.730064472747225066e-73
5.534999999999990905e+01 -2.914909324309769750e-73
5.556374999999991360e+01 -1.077185693038426442e-73
5.577749999999991815e+01 1.779035848991333623e-73
5.599124999999992269e+01 5.410136115703616275e-73
5.620499999999992724e+01 9.291675114190944479e-73
5.641874999999993179e+01 1.262590123358567411e-72
5.663249999999990791e+01 1.441596984007654405e-72
5.684624999999991246e+01 1.361639832961851967e-72
5.705999999999991701e+01 9.355323345754519923e-73
5.727374999999992156e+01 1.205677240473800870e-73
5.748749999999992610e+01 -1.053799367341241689e-72
5.770124999999993065e+01 -2.463870356303129460e-72
5.791499999999990678e+01 -3.882509713658187351e-72
5.812874999999991132e+01 -4.990014632247002349e-72
5.834249999999991587e+01 -5.410406870273589099e-72
5.855624999999992042e+01 -4.774763122395907625e-72
5.876999999999992497e+01 -2.807650357346895386e-72
5.898374999999992951e+01 5.740396088128435773e-73
5.919749999999990564e+01 5.167471872561820242e-72
5.941124999999991019e+01 1.041860748960133208e-71
5.962499999999991473e+01 1.541080822079710478e-71
5.983874999999991928e+01 1.893031217224131257e-71
6.005249999999992383e+01 1.962297160145696542e-71
6.026624999999992838e+01 1.624160582520258693e-71
6.047999999999990450e+01 7.962878514479355136e-72
6.069374999999990905e+01 -5.270638415664880138e-72
6.090749999999991360e+01 -2.244943668575398058e-71
6.112124999999991815e+01 -4.131847142150292438e-71
6.133499999999992269e+01 -5.840507379562778548e-71
6.154874999999992724e+01 -6.932264452694712675e-71
6.176249999999993179e+01 -6.938413558717261314e-71
6.197624999999990791e+01 -5.450416212568304454e-71
6.218999999999991246e+01 -2.229860001088249087e-71
6.240374999999991701e+01 2.678422496281928076e-71
6.261749999999992156e+01 8.853164770632093563e-71
6.283124999999992610e+01 1.545029079282433129e-70
6.304499999999993065e+01 2.122959775570744823e-70
6.325874999999990678e+01 2.467432066883146113e-70
6.347249999999991132e+01 2.421063561534279112e-70
6.368624999999991587e+01 1.851564585000130993e-70
6.389999999999992042e+01 6.880138838425762612e-71
6.411374999999992497e+01 -1.043017372962387732e-70
6.432749999999992951e+01 -3.188955014297632763e-70
6.454124999999990564e+01 -5.458683844475279407e-70
6.475499999999991019e+01 -7.433827655006439970e-70
6.496874999999991473e+01 -8.609435838431919230e-70
6.518249999999991928e+01 -8.465585768718807327e-70
6.539624999999992383e+01 -6.565770405747519813e-70
6.560999999999992838e+01 -2.671387681954610405e-70
6.582374999999990450e+01 3.144808145963853798e-70
6.603749999999990905e+01 1.040852092980649028e-69
6.625124999999991360e+01 1.820158352240419437e-69
6.646499999999991815e+01 2.519051011602000242e-69
6.667874999999992269e+01 2.974267438891744695e-69
6.689249999999992724e+01 3.013573837217501899e-69
6.710624999999990337e+01 2.485071182726314120e-69
6.731999999999990791e+01 1.292125867469648105e-69
6.753374999999991246e+01 -5.706003665164307420e-70
6.774749999999991701e+01 -2.986047667556829975e-69
6.796124999999992156e+01 -5.695509323863318429e-69
6.817499999999992610e+01 -8.298176699259206691e-69
6.838874999999990223e+01 -1.027533032211991339e-68
6.860249999999990678e+01 -1.104274378458720268e-68
6.881624999999991132e+01 -1.003142483370630294e-68
6.902999999999991587e+01 -6.792413004695476908e-69
6.924374999999992042e+01 -1.116327146811135796e-69
6.945749999999992497e+01 6.846813395639509305e-69
6.967124999999990109e+01 1.648668444573692800e-68
6.988499999999990564e+01 2.667340819715146206e-68
7.009874999999991019e+01 3.576426359721051940e-68
7.031249999999991473e+01 4.169932850460508085e-68
7.052624999999991928e+01 4.220382915170210326e-68
7.073999999999992383e+01 3.510497910791354849e-68
7.095374999999989996e+01 1.875559989460328676e-68
7.116749999999990450e+01 -7.464335349166057741e-69
7.138124999999990905e+01 -4.262311317604354178e-68
7.159499999999991360e+01 -8.377318054704210798e-68
7.180874999999991815e+01 -1.256582507933600863e-67
7.202249999999992269e+01 -1.607218141553026146e-67
7.223624999999989882e+01 -1.795508938746014406e-67
7.244999999999990337e+01 -1.718674494841102713e-67
7.266374999999990791e+01 -1.281245948806488482e-67
7.287749999999991246e+01 -4.167002135560029382e-68
7.309124999999991701e+01 8.869501966540473518e-68
7.330499999999992156e+01 2.560965614943307349e-67
7.351874999999989768e+01 4.434159760315665340e-67
7.373249999999990223e+01 6.222184586299148982e-67
7.394624999999990678e+01 7.535091269321050377e-67
7.415999999999991132e+01 7.909941969470041088e-67
7.437374999999991587e+01 6.873027652615370058e-67
7.458749999999992042e+01 4.031984205606446840e-67
7.480124999999992497e+01 -8.082109267966389912e-68
7.501499999999990109e+01 -7.519269900639346353e-67
7.522874999999990564e+01 -1.553598698943670585e-66
7.544249999999991019e+01 -2.378463786059786453e-66
7.565624999999991473e+01 -3.068708807251633786e-66
7.586999999999991928e+01 -3.427275462104107152e-66
7.608374999999992383e+01 -3.242125598477353808e-66
7.629749999999989996e+01 -2.324021005166627093e-66
7.651124999999990450e+01 -5.555349443340287827e-67
7.672499999999990905e+01 2.054385655491908983e-66
7.693874999999991360e+01 5.319588588488867243e-66
7.715249999999991815e+01 8.841989860034998057e-66
7.736624999999992269e+01 1.200702066550134342e-65
7.757999999999989882e+01 1.402265912558129529e-65
7.779374999999990337e+01 1.401162782874400480e-65
7.800749999999990791e+01 1.115887814387136984e-65
7.822124999999991246e+01 4.905549372898156490e-66
7.843499999999991701e+01 -4.832833703170145626e-66
7.864874999999992156e+01 -1.746016244069107163e-65
7.886249999999989768e+01 -3.155356603769974875e-65
7.907624999999990223e+01 -4.483143639463664166e-65
7.928999999999990678e+01 -5.428687582392917974e-65
7.950374999999991132e+01 -5.652281782025731224e-65
7.971749999999991587e+01 -4.829670089329296195e-65
7.993124999999992042e+01 -2.724175764875652651e-65
8.014499999999989654e+01 7.317311122905421130e-66
8.035874999999990109e+01 5.358701609921116969e-65
8.057249999999990564e+01 1.067403792817068552e-64
8.078624999999991019e+01 1.587596388958394154e-64
8.099999999999991473e+01 1.988686925072008150e-64
8.121374999999991928e+01 2.146828617011972333e-64
8.142749999999989541e+01 1.941027312674737840e-64
8.164124999999989996e+01 1.278364262236657351e-64
8.185499999999990450e+01 1.226552502652697414e-65
8.206874999999990905e+01 -1.478006218095822881e-64
8.228249999999991360e+01 -3.370744921677529812e-64
8.249624999999991815e+01 -5.291004161901945033e-64
8.270999999999989427e+01 -6.875347779153752229e-64
8.292374999999989882e+01 -7.698204191068551495e-64
8.313749999999990337e+01 -7.333455868638110266e-64
8.335124999999990791e+01 -5.437143731661380096e-64
8.356499999999991246e+01 -1.842130908198301155e-64
8.377874999999991701e+01 3.349815157768674309e-64
8.399249999999989313e+01 9.697319309591370384e-64
8.420624999999989768e+01 1.639078819712237535e-63
8.441999999999990223e+01 2.228506375798258888e-63
8.463374999999990678e+01 2.600672891187505512e-63
8.484749999999991132e+01 2.613925603518941572e-63
8.506124999999991587e+01 2.147522348199752752e-63
8.527499999999989200e+01 1.130867922669828362e-63
8.548874999999989654e+01 -4.275108780452071831e-64
8.570249999999990109e+01 -2.416765190419714887e-63
8.591624999999990564e+01 -4.612364549851879934e-63
8.612999999999991019e+01 -6.682207159526003066e-63
8.634374999999991473e+01 -8.214208638959741519e-63
8.655749999999989086e+01 -8.766551397942189084e-63
8.677124999999989541e+01 -7.937948357012257085e-63
8.698499999999989996e+01 -5.450894329152999141e-63
8.719874999999990450e+01 -1.236618294264567169e-63
8.741249999999990905e+01 4.492868843215411371e-63
8.762624999999991360e+01 1.120176520864628065e-62
8.783999999999991815e+01 1.803166175704057066e-62
8.805374999999989427e+01 2.385816319373901684e-62
8.826749999999989882e+01 2.740737668864015518e-62
8.848124999999990337e+01 2.742754897558172931e-62
8.869499999999990791e+01 2.290076193976704492e-62
8.890874999999991246e+01 1.326957089283394327e-62
8.912249999999991701e+01 -1.354407541210616774e-63
8.933624999999989313e+01 -2.003693555545998212e-62
8.954999999999989768e+01 -4.095835047500276201e-62
8.976374999999990223e+01 -6.147014515788836851e-62
8.997749999999990678e+01 -7.828694270597189594e-62
9.019124999999991132e+01 -8.781308519068791232e-62
9.040499999999991587e+01 -8.658429959093417373e-62
9.061874999999989200e+01 -7.178688804673491854e-62
9.083249999999989654e+01 -4.180229177763347162e-62
9.104624999999990109e+01 3.284242498866274580e-63
9.125999999999990564e+01 6.127487618950988532e-62
9.147374999999991019e+01 1.276110170162345110e-61
9.168749999999991473e+01 1.953390741566902563e-61
9.190124999999989086e+01 2.553342016355075406e-61
9.211499999999989541e+01 2.968172936804743295e-61
9.232874999999989996e+01 3.081928210583507156e-61
9.254249999999990450e+01 2.782266997074518809e-61
9.275624999999990905e+01 1.975692191941704806e-61
9.296999999999991360e+01 6.060021578593953295e-62
9.318374999999988972e+01 -1.324770518051445474e-61
9.339749999999989427e+01 -3.734480369653738666e-61
9.361124999999989882e+01 -6.440732525032197851e-61
9.382499999999990337e+01 -9.146545715079758943e-61
9.403874999999990791e+01 -1.143726635162093762e-60
9.425249999999991246e+01 -1.279522088830310039e-60
9.446624999999988859e+01 -1.263875791344474437e-60
9.467999999999989313e+01 -1.039104296887080719e-60
9.489374999999989768e+01 -5.580698467298503889e-61
9.510749999999990223e+01 2.029183838608727506e-61
9.532124999999990678e+01 1.229489473850642040e-60
9.553499999999991132e+01 2.454934560905466884e-60
9.574874999999988745e+01 3.749264178397621979e-60
9.596249999999989200e+01 4.915343444656656937e-60
9.617624999999989654e+01 5.696144976882626805e-60
9.638999999999990109e+01 5.796724236002038329e-60
9.660374999999990564e+01 4.923119026013404656e-60
9.681749999999991019e+01 2.837877541055372400e-60
9.703124999999988631e+01 -5.716129428907696720e-61
9.724499999999989086e+01 -5.220081841730956573e-60
9.745874999999989541e+01 -1.075908646499417698e-59
9.767249999999989996e+01 -1.653559463117093999e-59
9.788624999999990450e+01 -2.159239368515131482e-59
9.809999999999990905e+01 -2.472720283611088957e-59
9.831374999999988518e+01 -2.462243098487667015e-59
9.852749999999988972e+01 -2.004822615136983582e-59
9.874124999999989427e+01 -1.012800647809939779e-59
9.895499999999989882e+01 5.360822540572657795e-60
9.916874999999990337e+01 2.569560122407675556e-59
9.938249999999990791e+01 4.898627918447701901e-59
9.959624999999988404e+01 7.209098503923289732e-59
9.980999999999988859e+01 9.073661099157298449e-59
1.000237499999998931e+02 9.989685644321716312e-59
1.002374999999998977e+02 9.444975368131808028e-59
1.004512499999999022e+02 7.009114016775296601e-59
1.006649999999999068e+02 2.442338243563751683e-59
1.008787499999998829e+02 -4.192308132698695255e-59
1.010924999999998875e+02 -1.243338164964950805e-58
1.013062499999998920e+02 -2.136560958030195522e-58
1.015199999999998965e+02 -2.962879826634747869e-58
1.017337499999999011e+02 -3.551146914158744579e-58
1.019474999999999056e+02 -3.714073551071170045e-58
1.021612499999999102e+02 -3.276596052359383199e-58
1.023749999999998863e+02 -2.111562417598568624e-58
1.025887499999998909e+02 -1.786614267860241610e-59
1.028024999999998954e+02 2.439407800775863838e-58
1.030162499999999000e+02 5.510966912114325598e-58
1.032299999999999045e+02 8.647569283974325964e-58
1.034437499999999091e+02 1.132162763235954018e-57
1.036574999999998852e+02 1.291441179029909758e-57
1.038712499999998897e+02 1.279548799180434479e-57
1.040849999999998943e+02 1.042940464281699135e-57
1.042987499999998988e+02 5.499307424659964246e-58
1.045124999999999034e+02 -1.968973916873314230e-58
1.047262499999999079e+02 -1.150389907488109861e-57
1.049399999999998840e+02 -2.213058327995674829e-57
1.051537499999998886e+02 -3.238226352869527337e-57
1.053674999999998931e+02 -4.039964749197409169e-57
1.055812499999998977e+02 -4.412733286952066135e-57
1.057949999999999022e+02 -4.160255829161595197e-57
1.060087499999999068e+02 -3.131446534706460077e-57
1.062224999999998829e+02 -1.259385139039741667e-57
1.064362499999998875e+02 1.402315212351152490e-57
1.066499999999998920e+02 4.652569991099961115e-57
1.068637499999998965e+02 8.132488688567676871e-57
1.070774999999999011e+02 1.133807784746569660e-56
1.072912499999999056e+02 1.366041965857841072e-56
1.075049999999998818e+02 1.445450708087828828e-56
1.077187499999998863e+02 1.313359857107062249e-56
1.079324999999998909e+02 9.280996573087972545e-57
1.081462499999998954e+02 2.766179115679524101e-57
1.083599999999999000e+02 -6.151996657307898272e-57
1.085737499999999045e+02 -1.675489696072942664e-56
1.087874999999998806e+02 -2.784657663121803117e-56
1.090012499999998852e+02 -3.780629807515798550e-56
1.092149999999998897e+02 -4.472206757682522963e-56
1.094287499999998943e+02 -4.660667226319201143e-56
1.096424999999998988e+02 -4.168557688652875515e-56
1.098562499999999034e+02 -2.873240342203524381e-56
1.100699999999998795e+02 -7.414175869674656621e-57
1.102837499999998840e+02 2.140296794140202796e-56
1.104974999999998886e+02 5.544418291976639629e-56
1.107112499999998931e+02 9.097006317527706086e-56
1.109249999999998977e+02 1.229252350074162499e-55
1.111387499999999022e+02 1.453261879450419284e-55
1.113524999999998784e+02 1.518980975930437707e-55
1.115662499999998829e+02 1.369372658388008811e-55
1.117799999999998875e+02 9.633692243624078672e-56
1.119937499999998920e+02 2.867318243618889479e-56
1.122074999999998965e+02 -6.379012111417541985e-56
1.124212499999999011e+02 -1.743482619428233009e-55
1.126349999999998772e+02 -2.915385451920596682e-55
1.128487499999998818e+02 -3.994358849855799169e-55
1.130624999999998863e+02 -4.787023437438100919e-55
1.132762499999998909e+02 -5.084657080437166104e-55
1.134899999999998954e+02 -4.690043853618962190e-55
1.137037499999999000e+02 -3.450902289163795591e-55
1.139174999999998761e+02 -1.296962641330262212e-55
1.141312499999998806e+02 1.723724562497699083e-55
1.143449999999998852e+02 5.414987359223050340e-55
1.145587499999998897e+02 9.415874135775973196e-55
1.147724999999998943e+02 1.320396063452488216e-54
1.149862499999998988e+02 1.612464118443336987e-54
1.151999999999998749e+02 1.745040458820383922e-54
1.154137499999998795e+02 1.647074881357071862e-54
1.156274999999998840e+02 1.260877771672371845e-54
1.158412499999998886e+02 5.554942846578381532e-55
1.160549999999998931e+02 -4.597589970526764105e-55
1.162687499999998977e+02 -1.723701387094634628e-54
1.164824999999999022e+02 -3.116148726727996396e-54
1.166962499999998784e+02 -4.457866812839386249e-54
1.169099999999998829e+02 -5.519996140243219965e-54
1.171237499999998875e+02 -6.044580386023782398e-54
1.173374999999998920e+02 -5.776555765108047944e-54
1.175512499999998965e+02 -4.505785484075397685e-54
1.177649999999999011e+02 -2.115581872685779168e-54
1.179787499999998772e+02 1.368113696590716876e-54
1.181924999999998818e+02 5.734782888277061627e-54
1.184062499999998863e+02 1.056392654460677599e-53
1.186199999999998909e+02 1.522584166577848454e-53
1.188337499999998954e+02 1.891701753768275896e-53
1.190474999999999000e+02 2.073556306385431551e-53
1.192612499999998761e+02 1.979713428510251173e-53
1.194749999999998806e+02 1.538518551255389261e-53
1.196887499999998852e+02 7.121600235792477898e-54
1.199024999999998897e+02 -4.864165028225655871e-54
1.201162499999998943e+02 -1.979606177376068269e-53
1.203299999999998988e+02 -3.617528081602140482e-53
1.205437499999998749e+02 -5.179950386504502292e-53
1.207574999999998795e+02 -6.390442258409646248e-53
1.209712499999998840e+02 -6.944229813119805110e-53
1.211849999999998886e+02 -6.549397142340568161e-53
1.213987499999998931e+02 -4.978724710531251584e-53
1.216124999999998977e+02 -2.126836825510576454e-53
1.218262499999998738e+02 1.935201066339244354e-53
1.220399999999998784e+02 6.917678648856875066e-53
1.222537499999998829e+02 1.229320800347033393e-52
1.224674999999998875e+02 1.731104636551884198e-52
1.226812499999998920e+02 2.105247809769214552e-52
1.228949999999998965e+02 2.253044269570123548e-52
1.231087499999998727e+02 2.083019521342610020e-52
1.233224999999998772e+02 1.528001808590503141e-52
1.235362499999998818e+02 5.632768488508624946e-53
1.237499999999998863e+02 -7.768414985644792172e-53
1.239637499999998909e+02 -2.387213479622391667e-52
1.241774999999998954e+02 -4.088181513745711787e-52
1.243912499999998715e+02 -5.632950758202281923e-52
1.246049999999998761e+02 -6.728046281854216566e-52
1.248187499999998806e+02 -7.067280915962547377e-52
1.250324999999998852e+02 -6.377577089099167508e-52
1.252462499999998897e+02 -4.472572230578742808e-52
1.254599999999998943e+02 -1.307507522585298938e-52
1.256737499999998704e+02 2.973150669569472008e-52
1.258874999999998749e+02 8.005135439777247688e-52
1.261012499999998795e+02 1.320060401957105785e-51
1.263149999999998840e+02 1.777929525454490287e-51
1.265287499999998886e+02 2.083935871359780102e-51
1.267424999999998931e+02 2.146749298474162524e-51