2.024999999999579359e-01 -1.106216481973362225e-103
4.162499999999482725e-01 -4.425995906100406499e-104
6.299999999999528200e-01 1.017799336847948475e-103
8.437499999999573674e-01 3.422114890174107690e-103
1.057499999999947704e+00 6.672160550146894102e-103
1.271249999999952252e+00 1.024056880291063285e-102
1.484999999999956799e+00 1.299315834441309431e-102
1.698749999999947136e+00 1.309430278826023964e-102
1.912499999999951683e+00 8.107131044907492549e-103
2.126249999999956231e+00 -4.578285023237672658e-103
2.339999999999946567e+00 -2.686850281035998385e-102
2.553749999999951115e+00 -5.859358190518274936e-102
2.767499999999955662e+00 -9.574211363330944570e-102
2.981249999999945999e+00 -1.286540282095351092e-101
3.194999999999950546e+00 -1.408395375565498935e-101
3.408749999999955094e+00 -1.094240374356962474e-101
3.622499999999945430e+00 -8.444978103780485145e-103
3.836249999999949978e+00 1.838289531129128233e-101
4.049999999999954525e+00 4.729392879274819117e-101
4.263749999999944862e+00 8.322782797748678248e-101
4.477499999999949409e+00 1.185830153369063357e-100
4.691249999999953957e+00 1.395071133361408079e-100
4.904999999999944293e+00 1.258463495813806209e-100
5.118749999999948841e+00 5.342347316800625099e-101
5.332499999999953388e+00 -1.002771622543367701e-100
5.546249999999943725e+00 -3.463249524977818468e-100
5.759999999999948272e+00 -6.707258978695602603e-100
5.973749999999952820e+00 -1.018879901941634654e-99
6.187499999999943157e+00 -1.282281198112271438e-99
6.401249999999947704e+00 -1.294179852863398219e-99
6.614999999999952252e+00 -8.430535924536684950e-100
6.828749999999942588e+00 2.866586506202763281e-100
7.042499999999947136e+00 2.239467956127805905e-99
7.256249999999951683e+00 4.979097886612425358e-99
7.469999999999942020e+00 8.156085395188704260e-99
7.683749999999946567e+00 1.098234680568280687e-98
7.897499999999951115e+00 1.216319812843459711e-98
8.111249999999941451e+00 9.956466025023238061e-99
8.324999999999945999e+00 2.437617025751183168e-99
8.538749999999950546e+00 -1.196164393640276367e-98
8.752499999999940883e+00 -3.361805212224234556e-98
8.966249999999945430e+00 -6.064799255255953414e-98
9.179999999999949978e+00 -8.779938755479504668e-98
9.393749999999940314e+00 -1.056618428909003608e-97
9.607499999999944862e+00 -1.007164514601826477e-97
9.821249999999949409e+00 -5.685424126779728238e-98
1.003499999999993975e+01 4.103627974015459242e-98
1.024874999999994429e+01 2.010697782381879254e-97
1.046249999999994884e+01 4.161813969171537623e-97
1.067624999999993918e+01 6.549134818387469185e-97
1.088999999999994373e+01 8.535506830552903023e-97
1.110374999999994827e+01 9.133175935670178784e-97
1.131749999999993861e+01 7.074236160617747524e-97
1.153124999999994316e+01 1.029835323352573523e-97
1.174499999999994770e+01 -9.984400392118744272e-97
1.195874999999993804e+01 -2.601435989568848933e-96
1.217249999999994259e+01 -4.544455198689151186e-96
1.238624999999994714e+01 -6.429407355065648107e-96
1.259999999999993747e+01 -7.578282578925317552e-96
1.281374999999994202e+01 -7.051519853539520621e-96
1.302749999999994657e+01 -3.767850253150774677e-96
1.324124999999995111e+01 3.239284950896008226e-96
1.345499999999994145e+01 1.441344447909494385e-95
1.366874999999994600e+01 2.913923088406245173e-95
1.388249999999995055e+01 4.516331846919793458e-95
1.409624999999994088e+01 5.813365235713528518e-95
1.430999999999994543e+01 6.149685872726473831e-95
1.452374999999994998e+01 4.705047467071476780e-95
1.473749999999994031e+01 6.445802766563361864e-96
1.495124999999994486e+01 -6.616245733364887881e-95
1.516499999999994941e+01 -1.703608112239376648e-94
1.537874999999993975e+01 -2.950523982176716502e-94
1.559249999999994429e+01 -4.143371881485698313e-94
1.580624999999994884e+01 -4.852742485282623297e-94
1.601999999999993918e+01 -4.496205445008138169e-94
1.623374999999994373e+01 -2.418387325493694319e-94
1.644749999999994827e+01 1.947489450172298580e-94
1.666124999999993861e+01 8.831138146783751550e-94
1.687499999999994316e+01 1.780893473876704210e-93
1.708874999999994770e+01 2.747478765571185900e-93
1.730249999999993804e+01 3.519634025188022859e-93
1.751624999999994259e+01 3.709641436764550515e-93
1.772999999999994714e+01 2.842504599808757689e-93
1.794374999999993747e+01 4.476852174581083679e-94
1.815749999999994202e+01 -3.786002080611647513e-93
1.837124999999994657e+01 -9.798161015302165568e-93
1.858499999999993690e+01 -1.691571631343683112e-92
1.879874999999994145e+01 -2.364057529515584883e-92
1.901249999999994600e+01 -2.755440871456160422e-92
1.922624999999993634e+01 -2.545233787099800570e-92
1.943999999999994088e+01 -1.382082689470458020e-92
1.965374999999994543e+01 1.025612231949865483e-92
1.986749999999993577e+01 4.775797317604143890e-92
2.008124999999994031e+01 9.608673395112855761e-92
2.029499999999994486e+01 1.474405828798691434e-91
2.050874999999993520e+01 1.877288495948908123e-91
2.072249999999993975e+01 1.967397114017435559e-91
2.093624999999994429e+01 1.503544945021015353e-91
2.114999999999993463e+01 2.548833983107374619e-92
2.136374999999993918e+01 -1.919689070719569048e-91
2.157749999999994373e+01 -4.967009745247147295e-91
2.179124999999993406e+01 -8.526083223586896692e-91
2.200499999999993861e+01 -1.183502498584232148e-90
2.221874999999994316e+01 -1.370122117068874107e-90
2.243249999999993349e+01 -1.258581723107229167e-90
2.264624999999993804e+01 -6.851590484263530045e-91
2.285999999999994259e+01 4.795448525916781741e-91
2.307374999999993292e+01 2.268073817488500087e-90
2.328749999999993747e+01 4.542562224848528435e-90
2.350124999999994202e+01 6.925690257078218196e-90
2.371499999999993236e+01 8.760346367592049594e-90
2.392874999999993690e+01 9.128973377610287996e-90
2.414249999999994145e+01 6.965168100768985853e-90
2.435624999999993179e+01 1.282711830314100085e-90
2.456999999999993634e+01 -8.472619305800936355e-90
2.478374999999994088e+01 -2.197719657168734578e-89
2.499749999999993122e+01 -3.756530115490585614e-89
2.521124999999993577e+01 -5.187575744175039513e-89
2.542499999999994031e+01 -5.978679029269396012e-89
2.563874999999993065e+01 -5.484103224584442503e-89
2.585249999999993520e+01 -3.034147457887201488e-89
2.606624999999993975e+01 1.878981529187334572e-89
2.627999999999994429e+01 9.347057023479948482e-89
2.649374999999993463e+01 1.875703359207096107e-88
2.670749999999993918e+01 2.853240090463019334e-88
2.692124999999994373e+01 3.600075246004981564e-88
2.713499999999993406e+01 3.750540082244855174e-88
2.734874999999993861e+01 2.887886282051419326e-88
2.756249999999994316e+01 6.360897199340232649e-89
2.777624999999993349e+01 -3.203752286457529433e-88
2.798999999999993804e+01 -8.485437180597221396e-88
2.820374999999994259e+01 -1.454840446216432392e-87
2.841749999999993292e+01 -2.009640592473016928e-87
2.863124999999993747e+01 -2.318908806782375404e-87
2.884499999999994202e+01 -2.141766455687255234e-87
2.905874999999993236e+01 -1.232480875070365367e-87
2.927249999999993690e+01 5.906514645099062733e-88
2.948624999999994145e+01 3.353455507887070861e-87
2.969999999999993179e+01 6.824080896968673265e-87
2.991374999999993634e+01 1.042500271572689180e-86
3.012749999999994088e+01 1.319275647209447064e-86
3.034124999999993122e+01 1.382570089516590287e-86
3.055499999999993577e+01 1.085848496512608206e-86
3.076874999999994031e+01 2.988045976727675177e-87
3.098249999999993065e+01 -1.045331909825165597e-86
3.119624999999993520e+01 -2.892757387370091460e-86
3.140999999999993975e+01 -5.013061287129607288e-86
3.162374999999993008e+01 -6.960971228842993755e-86
3.183749999999993463e+01 -8.077375368897560492e-86
3.205124999999993918e+01 -7.552399357149838459e-86
3.226499999999992951e+01 -4.568761285976948799e-86
3.247874999999993406e+01 1.468839273458554766e-86
3.269249999999993861e+01 1.063392268374599438e-85
3.290624999999992895e+01 2.215294199314867892e-85
3.311999999999993349e+01 3.413277995763600958e-85
3.333374999999993804e+01 4.344945524605180491e-85
3.354749999999992838e+01 4.592290681665860949e-85
3.376124999999993292e+01 3.689286807358593969e-85
3.397499999999993747e+01 1.226243990646621433e-85
3.418874999999992781e+01 -3.001914653484872972e-85
3.440249999999993236e+01 -8.820435151043977480e-85
3.461624999999993690e+01 -1.550688126069545746e-84
3.482999999999992724e+01 -2.168236577564865812e-84
3.504374999999993179e+01 -2.532615130557294607e-84
3.525749999999993634e+01 -2.397933334955376430e-84
3.547124999999992667e+01 -1.518692248680857156e-84
3.568499999999993122e+01 2.811926863305586331e-85
3.589874999999993577e+01 3.020029589627472822e-84
3.611249999999992610e+01 6.464634436151299749e-84
3.632624999999993065e+01 1.005455872851620673e-83
3.653999999999993520e+01 1.287548715477878796e-83
3.675374999999992554e+01 1.371657856173750450e-83
3.696749999999993008e+01 1.124226757127606667e-83
3.718124999999993463e+01 4.293882799959310273e-84
3.739499999999992497e+01 -7.691364987847838289e-84
3.760874999999992951e+01 -2.419604809997853626e-83
3.782249999999993406e+01 -4.317156884693233495e-83
3.803624999999993861e+01 -6.076397713163903442e-83
3.824999999999994316e+01 -7.138898314667323842e-83
3.846374999999991928e+01 -6.832543353367194625e-83
3.867749999999992383e+01 -4.494464499653967564e-83
3.889124999999992838e+01 3.419450676923610585e-84
3.910499999999993292e+01 7.712875445989486185e-83
3.931874999999993747e+01 1.698185883882725263e-82
3.953249999999994202e+01 2.665166975430253307e-82
3.974624999999991815e+01 3.431098232835537573e-82
3.995999999999992269e+01 3.680238229682370946e-82
4.017374999999992724e+01 3.068367337703656559e-82
4.038749999999993179e+01 1.301223308031265314e-82
4.060124999999993634e+01 -1.759046953210328557e-82
4.081499999999994088e+01 -5.973626997371173964e-82
4.102874999999991701e+01 -1.081841681562060412e-81
4.124249999999992156e+01 -1.532271189533629361e-81
4.145624999999992610e+01 -1.809661950136164129e-81
4.166999999999993065e+01 -1.748618683349204142e-81
4.188374999999993520e+01 -1.188085706174436070e-81
4.209749999999993975e+01 -1.693705824612413544e-83
4.231124999999991587e+01 1.770196694363382696e-81
4.252499999999992042e+01 4.016621987206324178e-81
4.273874999999992497e+01 6.361712835971049098e-81
4.295249999999992951e+01 8.232172633633895265e-81
4.316624999999993406e+01 8.885786917425732988e-81
4.337999999999993861e+01 7.522812465872747281e-81
4.359374999999991473e+01 3.469707238651439484e-81
4.380749999999991928e+01 -3.577108018187691462e-81
4.402124999999992383e+01 -1.328209931170699677e-80
4.423499999999992838e+01 -2.443505671954939273e-80
4.444874999999993292e+01 -3.482890051590494713e-80
4.466249999999993747e+01 -4.134055542337564128e-80
4.487624999999991360e+01 -4.029550832487184086e-80
4.508999999999991815e+01 -2.816150774932576853e-80
4.530374999999992269e+01 -2.552029026186355452e-81
4.551749999999992724e+01 3.657183145559316734e-80
4.573124999999993179e+01 8.572038354036043226e-80
4.594499999999993634e+01 1.370378725764722226e-79
4.615874999999991246e+01 1.781996958507723262e-79
4.637249999999991701e+01 1.934341783877631087e-79
4.658624999999992156e+01 1.659535554971195345e-79
4.679999999999992610e+01 8.184668083295748956e-80
4.701374999999993065e+01 -6.487354829968260331e-80
4.722749999999993520e+01 -2.668288983325798741e-79
4.744124999999993975e+01 -4.986754810004469010e-79
4.765499999999991587e+01 -7.149579568648239745e-79
4.786874999999992042e+01 -8.521692268265576842e-79
4.808249999999992497e+01 -8.365101192683860598e-79
4.829624999999992951e+01 -5.980713171941028219e-79
4.850999999999993406e+01 -9.082738180514084082e-80
4.872374999999993861e+01 6.839776941476920066e-79
4.893749999999991473e+01 1.655515355211174851e-78
4.915124999999991928e+01 2.668436761453697098e-78
4.936499999999992383e+01 3.482702165023167402e-78
4.957874999999992838e+01 3.795221164094252288e-78
4.979249999999993292e+01 3.288013315207223809e-78
5.000624999999993747e+01 1.702936192609705526e-78
5.021999999999991360e+01 -1.063836355974068634e-78
5.043374999999991815e+01 -4.862711604910612353e-78
5.064749999999992269e+01 -9.210341460282225733e-78
5.086124999999992724e+01 -1.325749401261852682e-77
5.107499999999993179e+01 -1.583581444312982863e-77
5.128874999999993634e+01 -1.560803500215981968e-77
5.150249999999991246e+01 -1.133090026810846425e-77
5.171624999999991701e+01 -2.215346649719926139e-78
5.192999999999992156e+01 1.166362010992121025e-77
5.214374999999992610e+01 2.898944841236162542e-77
5.235749999999993065e+01 4.697025615367916941e-77
5.257124999999993520e+01 6.137390890936617050e-77
5.278499999999991132e+01 6.694517850877510741e-77
5.299874999999991587e+01 5.827180172185138575e-77
5.321249999999992042e+01 3.108180516201405898e-77
5.342624999999992497e+01 -1.616347864339794236e-77
5.363999999999992951e+01 -8.065247422225799256e-77
5.385374999999993406e+01 -1.539819897832228955e-76
5.406749999999991019e+01 -2.217736546959777642e-76
5.428124999999991473e+01 -2.646270812367431150e-76
5.449499999999991928e+01 -2.607619257726642018e-76
5.470874999999992383e+01 -1.904286878904940869e-76
5.492249999999992838e+01 -4.175542097753770484e-77
5.513624999999993292e+01 1.828120254796240874e-76
5.534999999999990905e+01 4.608378601800989487e-76
5.556374999999991360e+01 7.467551395354098528e-76
5.577749999999991815e+01 9.731482345690299952e-76
5.599124999999992269e+01 1.058059565664260535e-75
5.620499999999992724e+01 9.190983051844457974e-76
5.641874999999993179e+01 4.937543417100233470e-76
5.663249999999990791e+01 -2.364948927443964170e-76
5.684624999999991246e+01 -1.222684723404741170e-75
5.705999999999991701e+01 -2.331601989988895304e-75
5.727374999999992156e+01 -3.342822738210564773e-75
5.748749999999992610e+01 -3.966160944537360664e-75
5.770124999999993065e+01 -3.883843028796742540e-75
5.791499999999990678e+01 -2.817372318826676510e-75
5.812874999999991132e+01 -6.128709503270202403e-76
5.834249999999991587e+01 2.668533536635796589e-75
5.855624999999992042e+01 6.675600196429683781e-75
5.876999999999992497e+01 1.073216500947369627e-74
5.898374999999992951e+01 1.386806097093603346e-74
5.919749999999990564e+01 1.493544169546553878e-74
5.941124999999991019e+01 1.281713615940210488e-74
5.962499999999991473e+01 6.713571604419021664e-75
5.983874999999991928e+01 -3.530225584302719581e-75
6.005249999999992383e+01 -1.712179579835727238e-74
6.026624999999992838e+01 -3.212718833968857038e-74
6.047999999999990450e+01 -4.547799005554220860e-74
6.069374999999990905e+01 -5.325970580196190381e-74
6.090749999999991360e+01 -5.132492351183039843e-74
6.112124999999991815e+01 -3.621216241764086719e-74
6.133499999999992269e+01 -6.268179580194193460e-75
6.154874999999992724e+01 3.721990528947787005e-74
6.176249999999993179e+01 8.915670180331633168e-74
6.197624999999990791e+01 1.403539314174693254e-73
6.218999999999991246e+01 1.781325362014089010e-73
6.240374999999991701e+01 1.880182311934738916e-73
6.261749999999992156e+01 1.565509615903461381e-73
6.283124999999992610e+01 7.496327502566557888e-74
6.304499999999993065e+01 -5.682798204641212812e-74
6.325874999999990678e+01 -2.267692834641991055e-73
6.347249999999991132e+01 -4.088149168332998329e-73
6.368624999999991587e+01 -5.637518477194545075e-73
6.389999999999992042e+01 -6.435584904706081633e-73
6.411374999999992497e+01 -5.996209875772763842e-73
6.432749999999992951e+01 -3.943132164695684429e-73
6.454124999999990564e+01 -1.443010457311406600e-74
6.475499999999991019e+01 5.160803605055271955e-73
6.496874999999991473e+01 1.127467287648716138e-72
6.518249999999991928e+01 1.703310728483413383e-72
6.539624999999992383e+01 2.090680346759132969e-72
6.560999999999992838e+01 2.123127705060472485e-72
6.582374999999990450e+01 1.655889945665712710e-72
6.603749999999990905e+01 6.094604624463103833e-73
6.625124999999991360e+01 -9.858497556189458117e-73
6.646499999999991815e+01 -2.954834885338738997e-72
6.667874999999992269e+01 -4.964016790003918554e-72
6.689249999999992724e+01 -6.541617321936617905e-72
6.710624999999990337e+01 -7.138906546104782158e-72
6.731999999999990791e+01 -6.233975307042483918e-72
6.753374999999991246e+01 -3.469056483098174589e-72
6.774749999999991701e+01 1.199070420191085157e-72
6.796124999999992156e+01 7.367134946304445361e-72
6.817499999999992610e+01 1.411111437982397593e-71
6.838874999999990223e+01 2.000998840160785096e-71
6.860249999999990678e+01 2.329959176870342436e-71
6.881624999999991132e+01 2.216943989832853429e-71
6.902999999999991587e+01 1.518568205766538393e-71
6.924374999999992042e+01 1.786255266075163744e-72
6.945749999999992497e+01 -1.724399891485797697e-71
6.967124999999990109e+01 -3.944126065641379007e-71
6.988499999999990564e+01 -6.060962264778275965e-71
7.009874999999991019e+01 -7.516796973758279431e-71
7.031249999999991473e+01 -7.696806984647318008e-71
7.052624999999991928e+01 -6.056895277791996878e-71
7.073999999999992383e+01 -2.283686997583947140e-71
7.095374999999989996e+01 3.538894484817398542e-71
7.116749999999990450e+01 1.079410917403517387e-70
7.138124999999990905e+01 1.827272544413749531e-70
7.159499999999991360e+01 2.423317091015288870e-70
7.180874999999991815e+01 2.661386973967731137e-70
7.202249999999992269e+01 2.340628546057764829e-70
7.223624999999989882e+01 1.316208067595084006e-70
7.244999999999990337e+01 -4.434589959253556114e-71
7.266374999999990791e+01 -2.804109912672595122e-70
7.287749999999991246e+01 -5.432064953881836043e-70
7.309124999999991701e+01 -7.795191325349778754e-70
7.330499999999992156e+01 -9.211780527660825301e-70
7.351874999999989768e+01 -8.954608315372128574e-70
7.373249999999990223e+01 -6.407241583233640316e-70
7.394624999999990678e+01 -1.256160652602368702e-70
7.415999999999991132e+01 6.312643208742729440e-70
7.437374999999991587e+01 1.545732655312727478e-69
7.458749999999992042e+01 2.461700596968324035e-69
7.480124999999992497e+01 3.159362993945627007e-69
7.501499999999990109e+01 3.381733384530190163e-69
7.522874999999990564e+01 2.880598218395627267e-69
7.544249999999991019e+01 1.478850179505092947e-69
7.565624999999991473e+01 -8.588608075217241641e-70
7.586999999999991928e+01 -3.960352835594304783e-69
7.608374999999992383e+01 -7.402312820628835603e-69
7.629749999999989996e+01 -1.050790414928618961e-68
7.651124999999990450e+01 -1.240264206933890571e-68
7.672499999999990905e+01 -1.213892109071495474e-68
7.693874999999991360e+01 -8.887871110553182787e-69
7.715249999999991815e+01 -2.181172834911263861e-69
7.736624999999992269e+01 7.832972218094842720e-69
7.757999999999989882e+01 2.017308890897786373e-68
7.779374999999990337e+01 3.291262121934851294e-68
7.800749999999990791e+01 4.324107138154180992e-68
7.822124999999991246e+01 4.775375863113652022e-68
7.843499999999991701e+01 4.299594202346409012e-68
7.864874999999992156e+01 2.623930771626404025e-68
7.886249999999989768e+01 -3.593016452566966689e-69
7.907624999999990223e+01 -4.500430937952986126e-68
7.928999999999990678e+01 -9.321662977274499373e-68
7.950374999999991132e+01 -1.399258340814852228e-67
7.971749999999991587e+01 -1.737622468995542538e-67
7.993124999999992042e+01 -1.816378203711989637e-67
8.014499999999989654e+01 -1.510325545595233435e-67
8.035874999999990109e+01 -7.308144923850444832e-68
8.057249999999990564e+01 5.391397035966212690e-68
8.078624999999991019e+01 2.211733716149655771e-67
8.099999999999991473e+01 4.071553226616176357e-67
8.121374999999991928e+01 5.772386710758926236e-67
8.142749999999989541e+01 6.862351986890252702e-67
8.164124999999989996e+01 6.843129248721315455e-67
8.185499999999990450e+01 5.263744646720461580e-67
8.206874999999990905e+01 1.841741633421478029e-67
8.228249999999991360e+01 -3.404484543214192935e-67
8.249624999999991815e+01 -1.003747841940592530e-66
8.270999999999989427e+01 -1.712896125070336985e-66
8.292374999999989882e+01 -2.326942833785626178e-66
8.313749999999990337e+01 -2.668981491897295630e-66
8.335124999999990791e+01 -2.551313794872883668e-66
8.356499999999991246e+01 -1.813204690153348354e-66
8.377874999999991701e+01 -3.678319610820021764e-67
8.399249999999989313e+01 1.748394700247810749e-66
8.420624999999989768e+01 4.334243772031213189e-66
8.441999999999990223e+01 7.002221201926234356e-66
8.463374999999990678e+01 9.190165648148164431e-66
8.484749999999991132e+01 1.021653129189506583e-65
8.506124999999991587e+01 9.384494521828967051e-66
8.527499999999989200e+01 6.131152673855109384e-66
8.548874999999989654e+01 2.065136758399090007e-67
8.570249999999990109e+01 -8.145777499849067029e-66
8.591624999999990564e+01 -1.804557945871867759e-65
8.612999999999991019e+01 -2.791814819372902029e-65
8.634374999999991473e+01 -3.556736314094154377e-65
8.655749999999989086e+01 -3.841603389726523032e-65
8.677124999999989541e+01 -3.392594728965508020e-65
8.698499999999989996e+01 -2.017529576233333351e-65
8.719874999999990450e+01 3.472691772422560540e-66
8.741249999999990905e+01 3.572238856709838522e-65
8.762624999999991360e+01 7.287155494847415514e-65
8.783999999999991815e+01 1.086831795490756159e-64
8.805374999999989427e+01 1.347670879732478953e-64
8.826749999999989882e+01 1.415858698670194063e-64
8.848124999999990337e+01 1.201059618731235097e-64
8.869499999999990791e+01 6.398002016568181096e-65
8.890874999999991246e+01 -2.801490187244380740e-65
8.912249999999991701e+01 -1.497218861417255887e-64
8.933624999999989313e+01 -2.860987172190161007e-64
8.954999999999989768e+01 -4.130826856850614694e-64
8.976374999999990223e+01 -4.993819477910466952e-64
8.997749999999990678e+01 -5.105386146236945717e-64
9.019124999999991132e+01 -4.152408492626164229e-64
9.040499999999991587e+01 -1.933582533959632390e-64
9.061874999999989200e+01 1.554035132941039635e-64
9.083249999999989654e+01 6.038875881599515225e-64
9.104624999999990109e+01 1.092968750405237384e-63
9.125999999999990564e+01 1.532291412978334980e-63
9.147374999999991019e+01 1.808082572996598490e-63
9.168749999999991473e+01 1.798996964278980588e-63
9.190124999999989086e+01 1.399556907189001526e-63
9.211499999999989541e+01 5.489298621115241717e-64
9.232874999999989996e+01 -7.392169458617901020e-64
9.254249999999990450e+01 -2.351863208978758653e-63
9.275624999999990905e+01 -4.064027846273350535e-63
9.296999999999991360e+01 -5.545670641692493278e-63
9.318374999999988972e+01 -6.393814011649878426e-63
9.339749999999989427e+01 -6.192232298739356146e-63
9.361124999999989882e+01 -4.595951794552019921e-63
9.382499999999990337e+01 -1.431434041799841410e-63
9.403874999999990791e+01 3.203400069558955108e-63
9.425249999999991246e+01 8.860876653930577152e-63
9.446624999999988859e+01 1.471172252028943431e-62
9.467999999999989313e+01 1.958333414734717452e-62
9.489374999999989768e+01 2.208530483029166166e-62
9.510749999999990223e+01 2.082679588711353620e-62
9.532124999999990678e+01 1.471229756324413507e-62
9.553499999999991132e+01 3.280728516028992191e-63
9.574874999999988745e+01 -1.296895394884465458e-62
9.596249999999989200e+01 -3.233980753033362164e-62
9.617624999999989654e+01 -5.186842983949664789e-62
9.638999999999990109e+01 -6.750062217417022468e-62
9.660374999999990564e+01 -7.456028080916292847e-62
9.681749999999991019e+01 -6.851558359283237713e-62
9.703124999999988631e+01 -4.598488013162557418e-62
9.724499999999989086e+01 -5.853725557551199561e-63
9.745874999999989541e+01 4.969392286891489875e-62
9.767249999999989996e+01 1.144777859760983790e-61
9.788624999999990450e+01 1.782196449590016111e-61
9.809999999999990905e+01 2.272664396914844259e-61
9.831374999999988518e+01 2.462717527529862649e-61
9.852749999999988972e+01 2.208138686508208760e-61
9.874124999999989427e+01 1.407244141258023891e-61
9.895499999999989882e+01 3.675105580837771445e-63
9.916874999999990337e+01 -1.816385829625480420e-61
9.938249999999990791e+01 -3.935190912272959377e-61
9.959624999999988404e+01 -5.973170052523878454e-61
9.980999999999988859e+01 -7.481890203078464561e-61
1.000237499999998931e+02 -7.969083656590517040e-61
1.002374999999998977e+02 -6.985536014791603682e-61
1.004512499999999022e+02 -4.232450444720284847e-61
1.006649999999999068e+02 3.260559225214597257e-62
1.008787499999998829e+02 6.366866931030539773e-61
1.010924999999998875e+02 1.315353311845614707e-60
1.013062499999998920e+02 1.954883689303367524e-60
1.015199999999998965e+02 2.411395128035303228e-60
1.017337499999999011e+02 2.530256263285058327e-60
1.019474999999999056e+02 2.174154609836518380e-60
1.021612499999999102e+02 1.256921697871452174e-60
1.023749999999998863e+02 -2.219168249420448698e-61
1.025887499999998909e+02 -2.148698326524024556e-60
1.028024999999998954e+02 -4.281105123352157745e-60
1.030162499999999000e+02 -6.255093528290385173e-60
1.032299999999999045e+02 -7.618862423122997671e-60
1.034437499999999091e+02 -7.895756250504970773e-60
1.036574999999998852e+02 -6.672718345490746860e-60
1.038712499999998897e+02 -3.704619128944531840e-60
1.040849999999998943e+02 9.815625775701208700e-61
1.042987499999998988e+02 7.003853910164228687e-60
1.045124999999999034e+02 1.358732342244182049e-59
1.047262499999999079e+02 1.959314258700813974e-59
1.049399999999998840e+02 2.363029893494551117e-59
1.051537499999998886e+02 2.425388794720264584e-59
1.053674999999998931e+02 2.023770755400239130e-59
1.055812499999998977e+02 1.089002104238516956e-59
1.057949999999999022e+02 -3.637191837095921391e-60
1.060087499999999068e+02 -2.210957640944578081e-59
1.062224999999998829e+02 -4.211247664347942609e-59
1.064362499999998875e+02 -6.015776870508975574e-59
1.066499999999998920e+02 -7.203862647435547202e-59
1.068637499999998965e+02 -7.343937453148458266e-59
1.070774999999999011e+02 -6.075890049402720382e-59
1.072912499999999056e+02 -3.205054829207085546e-59
1.075049999999998818e+02 1.207203808980646056e-59
1.077187499999998863e+02 6.775369500054449706e-59
1.079324999999998909e+02 1.276462388879082366e-58
1.081462499999998954e+02 1.812700260068499637e-58
1.083599999999999000e+02 2.161070530920221210e-58
1.085737499999999045e+02 2.194357640583495572e-58
1.087874999999998806e+02 1.807741247249474752e-58
1.090012499999998852e+02 9.463629631110914020e-59
1.092149999999998897e+02 -3.684409427627781689e-59
1.094287499999998943e+02 -2.019816973927727139e-58
1.096424999999998988e+02 -3.788901555867091959e-58
1.098562499999999034e+02 -5.366359073373281328e-58
1.100699999999998795e+02 -6.385191358271587849e-58
1.102837499999998840e+02 -6.474866556440228398e-58
1.104974999999998886e+02 -5.332646480854898171e-58
1.107112499999998931e+02 -2.803371406230159008e-58
1.109249999999998977e+02 1.045339002812012130e-58
1.111387499999999022e+02 5.868550649378946268e-58
1.113524999999998784e+02 1.102703515818612676e-57
1.115662499999998829e+02 1.562248125165288522e-57
1.117799999999998875e+02 1.859374495113247125e-57
1.119937499999998920e+02 1.887373849445235443e-57
1.122074999999998965e+02 1.559462569630525064e-57
1.124212499999999011e+02 8.315904341375450181e-58
1.126349999999998772e+02 -2.762077340565156454e-58
1.128487499999998818e+02 -1.664494598776255480e-57
1.130624999999998863e+02 -3.149913909093841284e-57
1.132762499999998909e+02 -4.475561405720692946e-57
1.134899999999998954e+02 -5.338654152674337673e-57
1.137037499999999000e+02 -5.435272057971026180e-57
1.139174999999998761e+02 -4.518574491693236571e-57
1.141312499999998806e+02 -2.463228823859744537e-57
1.143449999999998852e+02 6.745497020530465575e-58
1.145587499999998897e+02 4.614213501035774717e-57
1.147724999999998943e+02 8.838663540880595880e-57
1.149862499999998988e+02 1.262390816621106472e-56
1.151999999999998749e+02 1.511714945515527186e-56
1.154137499999998795e+02 1.546243374806078398e-56
1.156274999999998840e+02 1.296360133566153628e-56
1.158412499999998886e+02 7.264116808551599296e-57
1.160549999999998931e+02 -1.485804416237855619e-57
1.162687499999998977e+02 -1.251048590264962391e-56
1.164824999999999022e+02 -2.437524383569971066e-56
1.166962499999998784e+02 -3.506902953087966925e-56
1.169099999999998829e+02 -4.222096514590858689e-56
1.171237499999998875e+02 -4.344793840819700827e-56
1.173374999999998920e+02 -3.680454277702215920e-56
1.175512499999998965e+02 -2.127886766871933340e-56
1.177649999999999011e+02 2.747258293202419016e-57
1.179787499999998772e+02 3.317140107068993789e-56
1.181924999999998818e+02 6.607727742655040952e-56
1.184062499999998863e+02 9.595934340371656684e-56
1.186199999999998909e+02 1.163127865751581256e-55
1.188337499999998954e+02 1.205804362250392024e-55
1.190474999999999000e+02 1.033778586765814558e-55
1.192612499999998761e+02 6.184287588882721007e-56
1.194749999999998806e+02 -3.111111921143340810e-57
1.196887499999998852e+02 -8.590229117977143192e-56
1.199024999999998897e+02 -1.760180878604301106e-55
1.201162499999998943e+02 -2.586093968009020446e-55
1.203299999999998988e+02 -3.160684932488928933e-55
1.205437499999998749e+02 -3.305671915191266505e-55
1.207574999999998795e+02 -2.873439918713203598e-55
1.209712499999998840e+02 -1.783291330842780070e-55
1.211849999999998886e+02 -5.519149726075685032e-57
1.213987499999998931e+02 2.166025809764042425e-55
1.216124999999998977e+02 4.603169462317114677e-55
1.218262499999998738e+02 6.861923796677347715e-55
1.220399999999998784e+02 8.472187556003156439e-55
1.222537499999998829e+02 8.954932079799026995e-55
1.224674999999998875e+02 7.909050734811250175e-55
1.226812499999998920e+02 5.107426390503869968e-55
1.228949999999998965e+02 5.867966929830848617e-56
1.231087499999998727e+02 -5.287019972376134680e-55
1.233224999999998772e+02 -1.179735911078705052e-54
1.235362499999998818e+02 -1.791420123992735059e-54
1.237499999999998863e+02 -2.239993482649007841e-54
1.239637499999998909e+02 -2.398213500229078580e-54
1.241774999999998954e+02 -2.157932584363779028e-54
1.243912499999998715e+02 -1.455212611816939354e-54
1.246049999999998761e+02 -2.940130274292452166e-55
1.248187499999998806e+02 1.236301623902021146e-54
1.250324999999998852e+02 2.954507120021572242e-54
1.252462499999998897e+02 4.596239909645923572e-54
1.254599999999998943e+02 5.840306773129338787e-54
1.256737499999998704e+02 6.352398865696039229e-54
1.258874999999998749e+02 5.842780999815593762e-54
1.261012499999998795e+02 4.131067177267976618e-54
1.263149999999998840e+02 1.208097205964367978e-54
1.265287499999998886e+02 -2.717142151838369200e-54
1.267424999999998931e+02 -7.198012235282120028e-54