2.024999999999579359e-01 -3.982230646610997590e-154
4.162499999999482725e-01 -7.258289929580976050e-154
6.299999999999528200e-01 -1.079986284749200011e-153
8.437499999999573674e-01 -1.291211992213816476e-153
1.057499999999947704e+00 -1.043137499459417354e-153
1.271249999999952252e+00 1.426960465633583629e-154
1.484999999999956799e+00 2.849139149515318643e-153
1.698749999999947136e+00 7.568974885702198008e-153
1.912499999999951683e+00 1.430364318756891514e-152
2.126249999999956231e+00 2.191068631765590073e-152
2.339999999999946567e+00 2.723979374018740124e-152
2.553749999999951115e+00 2.426904232050640103e-152
2.767499999999955662e+00 3.728317667237074977e-153
2.981249999999945999e+00 -4.594509646303211082e-152
3.194999999999950546e+00 -1.351275655866617280e-151
3.408749999999955094e+00 -2.656896508422359525e-151
3.622499999999945430e+00 -4.189646127607389483e-151
3.836249999999949978e+00 -5.396302064143358091e-151
4.049999999999954525e+00 -5.191819644605086791e-151
4.263749999999944862e+00 -1.875677147692666582e-151
4.477499999999949409e+00 6.720892419459886767e-151
4.691249999999953957e+00 2.264567973849415668e-150
4.904999999999944293e+00 4.655899828901940851e-150
5.118749999999948841e+00 7.562804686572378030e-150
5.332499999999953388e+00 1.006725712391528969e-149
5.546249999999943725e+00 1.031681597792997523e-149
5.759999999999948272e+00 5.353991199439732253e-150
5.973749999999952820e+00 -8.674616852038236393e-150
6.187499999999943157e+00 -3.557348029226245969e-149
6.401249999999947704e+00 -7.701754542089493395e-149
6.614999999999952252e+00 -1.290502085243042973e-148
6.828749999999942588e+00 -1.772782415472116402e-148
7.042499999999947136e+00 -1.917115368939662215e-148
7.256249999999951683e+00 -1.235251705170688097e-148
7.469999999999942020e+00 9.224729076469358835e-149
7.683749999999946567e+00 5.223721915153674069e-148
7.897499999999951115e+00 1.202940494021918699e-147
8.111249999999941451e+00 2.083955162019486307e-147
8.324999999999945999e+00 2.952328829051222016e-147
8.538749999999950546e+00 3.347341514626995139e-147
8.752499999999940883e+00 2.503006922745544653e-147
8.966249999999945430e+00 -6.215723264878585792e-148
9.179999999999949978e+00 -7.136258720905994554e-147
9.393749999999940314e+00 -1.773794815945108343e-146
9.607499999999944862e+00 -3.187552875882118493e-146
9.821249999999949409e+00 -4.657367387309591752e-146
1.003499999999993975e+01 -5.511284462961752455e-146
1.024874999999994429e+01 -4.606165677705331792e-146
1.046249999999994884e+01 -3.549389737985067142e-147
1.067624999999993918e+01 8.993919458599373972e-146
1.088999999999994373e+01 2.467604728881250405e-145
1.110374999999994827e+01 4.621157043292011878e-145
1.131749999999993861e+01 6.969046670083885021e-145
1.153124999999994316e+01 8.580551417759081673e-145
1.174499999999994770e+01 7.831373366275539512e-145
1.195874999999993804e+01 2.415855980930664743e-145
1.217249999999994259e+01 -1.029524965562750590e-144
1.238624999999994714e+01 -3.234076835623200021e-144
1.259999999999993747e+01 -6.352464480891773680e-144
1.281374999999994202e+01 -9.902776622650618879e-144
1.302749999999994657e+01 -1.266065064511711457e-143
1.324124999999995111e+01 -1.242689365936324336e-143
1.345499999999994145e+01 -6.006367518043526044e-144
1.366874999999994600e+01 1.036130712758063107e-143
1.388249999999995055e+01 3.983282648525422028e-143
1.409624999999994088e+01 8.280839436038990175e-143
1.430999999999994543e+01 1.337502337623490377e-142
1.452374999999994998e+01 1.773649010221142732e-142
1.473749999999994031e+01 1.852614614397653351e-142
1.495124999999994486e+01 1.151612894076206198e-142
1.516499999999994941e+01 -8.424983508022866519e-143
1.537874999999993975e+01 -4.590905211090554296e-142
1.559249999999994429e+01 -1.023348162592622255e-141
1.580624999999994884e+01 -1.718300967625148794e-141
1.601999999999993918e+01 -2.362682920325910182e-141
1.623374999999994373e+01 -2.606837917878347727e-141
1.644749999999994827e+01 -1.916103198218362391e-141
1.666124999999993861e+01 3.784736352401972568e-142
1.687499999999994316e+01 4.915237311700275556e-141
1.708874999999994770e+01 1.197961518521739181e-140
1.730249999999993804e+01 2.100816914558847595e-140
1.751624999999994259e+01 2.996484711455212270e-140
1.772999999999994714e+01 3.474004097287409767e-140
1.794374999999993747e+01 2.886663256031226787e-140
1.815749999999994202e+01 4.004252845450594341e-141
1.837124999999994657e+01 -4.824345176747509271e-140
1.858499999999993690e+01 -1.326383558803849397e-139
1.879874999999994145e+01 -2.444946067170634581e-139
1.901249999999994600e+01 -3.621865278387153594e-139
1.922624999999993634e+01 -4.396121576221546465e-139
1.943999999999994088e+01 -4.019015065804852495e-139
1.965374999999994543e+01 -1.495062572515523119e-139
1.986749999999993577e+01 4.227756200282652428e-139
2.008124999999994031e+01 1.385349659829984982e-138
2.029499999999994486e+01 2.708429328114109381e-138
2.050874999999993520e+01 4.175607515346703209e-138
2.072249999999993975e+01 5.293320960751622281e-138
2.093624999999994429e+01 5.231505239778661983e-138
2.114999999999993463e+01 2.851698693478726151e-138
2.136374999999993918e+01 -3.104169625415153179e-138
2.157749999999994373e+01 -1.358927361520657104e-137
2.179124999999993406e+01 -2.854542408974433318e-137
2.200499999999993861e+01 -4.594482287054084240e-137
2.221874999999994316e+01 -6.074714537968483371e-137
2.243249999999993349e+01 -6.413573622352549268e-137
2.264624999999993804e+01 -4.362609908166537471e-137
2.285999999999994259e+01 1.516465190615111198e-137
2.307374999999993292e+01 1.242523974934582560e-136
2.328749999999993747e+01 2.859532614825095588e-136
2.350124999999994202e+01 4.826662562025421791e-136
2.371499999999993236e+01 6.653418776725900483e-136
2.392874999999993690e+01 7.442384100189911431e-136
2.414249999999994145e+01 5.879906099908108202e-136
2.435624999999993179e+01 3.917969517983900804e-137
2.456999999999993634e+01 -1.044646610637291088e-135
2.478374999999994088e+01 -2.717819555928449299e-135
2.499749999999993122e+01 -4.841719071445791809e-135
2.521124999999993577e+01 -6.962281616680894915e-135
2.542499999999994031e+01 -8.204107906992441430e-135
2.563874999999993065e+01 -7.240139480408097800e-135
2.585249999999993520e+01 -2.418924871498090097e-135
2.606624999999993975e+01 7.858108836217859793e-135
2.627999999999994429e+01 2.443501346482256627e-134
2.649374999999993463e+01 4.636585280064618270e-134
2.670749999999993918e+01 6.966359784448554482e-134
2.692124999999994373e+01 8.614646906535082329e-134
2.713499999999993406e+01 8.293814679393828359e-134
2.734874999999993861e+01 4.341465381668441469e-134
2.756249999999994316e+01 -4.948193081418980988e-134
2.777624999999993349e+01 -2.067733345501141866e-133
2.798999999999993804e+01 -4.235944265946016978e-133
2.820374999999994259e+01 -6.668968286902126340e-133
2.841749999999993292e+01 -8.634537238825928278e-133
2.863124999999993747e+01 -8.932282746342835313e-133
2.884499999999994202e+01 -5.955035287315116421e-133
2.905874999999993236e+01 2.033882795898101087e-133
2.927249999999993690e+01 1.632713432564394069e-132
2.948624999999994145e+01 3.687053199214804053e-132
2.969999999999993179e+01 6.109926497270529256e-132
2.991374999999993634e+01 8.274434796673388203e-132
3.012749999999994088e+01 9.105340326343446730e-132
3.034124999999993122e+01 7.109238041590181609e-132
3.055499999999993577e+01 5.947497639657227141e-133
3.076874999999994031e+01 -1.183904934498197208e-131
3.098249999999993065e+01 -3.050530027211442513e-131
3.119624999999993520e+01 -5.356806980180414430e-131
3.140999999999993975e+01 -7.590334710377930887e-131
3.162374999999993008e+01 -8.825791340110192331e-131
3.183749999999993463e+01 -7.728621179621374613e-131
3.205124999999993918e+01 -2.719859118057002669e-131
3.226499999999992951e+01 7.624641383359281750e-131
3.247874999999993406e+01 2.389571883213066231e-130
3.269249999999993861e+01 4.491789158708089901e-130
3.290624999999992895e+01 6.670507420903481792e-130
3.311999999999993349e+01 8.161106305172203510e-130
3.333374999999993804e+01 7.816240885011274723e-130
3.354749999999992838e+01 4.220782252417772597e-130
3.376124999999993292e+01 -3.995525191428031601e-130
3.397499999999993747e+01 -1.760191718107745446e-129
3.418874999999992781e+01 -3.597563720495737497e-129
3.440249999999993236e+01 -5.618081756065876545e-129
3.461624999999993690e+01 -7.215724861085321878e-129
3.482999999999992724e+01 -7.441481370154992687e-129
3.504374999999993179e+01 -5.076341074240983200e-129
3.525749999999993634e+01 1.134757370385533930e-129
3.547124999999992667e+01 1.204412353736142090e-128
3.568499999999993122e+01 2.745464945280875234e-128
3.589874999999993577e+01 4.533737418004056412e-128
3.611249999999992610e+01 6.109420159652610679e-128
3.632624999999993065e+01 6.717581267571234879e-128
3.653999999999993520e+01 5.348248586683459241e-128
3.675374999999992554e+01 9.028977412262271181e-129
3.696749999999993008e+01 -7.472714271689310641e-128
3.718124999999993463e+01 -1.987884939406017939e-127
3.739499999999992497e+01 -3.502135805707308070e-127
3.760874999999992951e+01 -4.957123646723752250e-127
3.782249999999993406e+01 -5.775837083730086343e-127
3.803624999999993861e+01 -5.153300137322140308e-127
3.824999999999994316e+01 -2.168406691330443258e-127
3.846374999999991928e+01 3.973895280525201699e-127
3.867749999999992383e+01 1.355558738875802824e-126
3.889124999999992838e+01 2.584041136240804247e-126
3.910499999999993292e+01 3.854072582166537270e-126
3.931874999999993747e+01 4.742672393670083149e-126
3.953249999999994202e+01 4.632907907610899730e-126
3.974624999999991815e+01 2.783876748539695595e-126
3.995999999999992269e+01 -1.500800259337636124e-126
4.017374999999992724e+01 -8.590288673038545297e-126
4.038749999999993179e+01 -1.814269980688946232e-125
4.060124999999993634e+01 -2.867914282061974921e-125
4.081499999999994088e+01 -3.723468275981270453e-125
4.102874999999991701e+01 -3.926842136784359504e-125
4.124249999999992156e+01 -2.906137854205158854e-125
4.145624999999992610e+01 -8.315321941977360241e-127
4.166999999999993065e+01 4.928431636948666784e-125
4.188374999999993520e+01 1.204243007223528741e-124
4.209749999999993975e+01 2.037342033465584969e-124
4.231124999999991587e+01 2.794353530022012684e-124
4.252499999999992042e+01 3.155004396913178883e-124
4.273874999999992497e+01 2.695959837873816882e-124
4.295249999999992951e+01 9.604448782779772038e-125
4.316624999999993406e+01 -2.408853774301805911e-124
4.337999999999993861e+01 -7.472767681425812983e-124
4.359374999999991473e+01 -1.375517897810422216e-123
4.380749999999991928e+01 -2.000987276770099152e-123
4.402124999999992383e+01 -2.408003900618644236e-123
4.423499999999992838e+01 -2.296613902387887674e-123
4.444874999999993292e+01 -1.323063116905269664e-123
4.466249999999993747e+01 8.153821570953923586e-124
4.487624999999991360e+01 4.247996730936638861e-123
4.508999999999991815e+01 8.761077447442205122e-123
4.530374999999992269e+01 1.362198658930904038e-122
4.551749999999992724e+01 1.745147435777644194e-122
4.573124999999993179e+01 1.822171408236124193e-122
4.594499999999993634e+01 1.347022864127734004e-122
4.615874999999991246e+01 8.113535502631002627e-124
4.637249999999991701e+01 -2.121499397874561366e-122
4.658624999999992156e+01 -5.200198936073347656e-122
4.679999999999992610e+01 -8.761542661897995706e-122
4.701374999999993065e+01 -1.197481072124820929e-121
4.722749999999993520e+01 -1.353843986001809282e-121
4.744124999999993975e+01 -1.177792800180951733e-121
4.765499999999991587e+01 -4.934095510776503934e-122
4.786874999999992042e+01 8.321340829496920660e-122
4.808249999999992497e+01 2.815501650703242697e-121
4.829624999999992951e+01 5.271668754259806253e-121
4.850999999999993406e+01 7.735247651295521431e-121
4.872374999999993861e+01 9.418810008784935227e-121
4.893749999999991473e+01 9.246726981015473234e-121
4.915124999999991928e+01 6.004546014250782851e-121
4.936499999999992383e+01 -1.366507350717578699e-121
4.957874999999992838e+01 -1.332721984589807124e-120
4.979249999999993292e+01 -2.919317344725217443e-120
5.000624999999993747e+01 -4.658739672275516998e-120
5.021999999999991360e+01 -6.106662700821802152e-120
5.043374999999991815e+01 -6.615350864587972477e-120
5.064749999999992269e+01 -5.402978049880526810e-120
5.086124999999992724e+01 -1.710196111448786465e-120
5.107499999999993179e+01 4.948753448083852892e-120
5.128874999999993634e+01 1.445813096126410687e-119
5.150249999999991246e+01 2.574914361898423524e-119
5.171624999999991701e+01 3.651902582962158787e-119
5.192999999999992156e+01 4.315251264736848544e-119
5.214374999999992610e+01 4.099717384814295739e-119
5.235749999999993065e+01 2.512873398784345602e-119
5.257124999999993520e+01 -8.324805947009611997e-120
5.278499999999991132e+01 -6.036161591808053751e-119
5.299874999999991587e+01 -1.270391914925351330e-118
5.321249999999992042e+01 -1.976428143776946675e-118
5.342624999999992497e+01 -2.537872968815158812e-118
5.363999999999992951e+01 -2.702814627613731065e-118
5.385374999999993406e+01 -2.185376952861633820e-118
5.406749999999991019e+01 -7.299160815218538862e-119
5.428124999999991473e+01 1.796507287444105616e-118
5.449499999999991928e+01 5.294889980785193879e-118
5.470874999999992383e+01 9.331503752287242186e-118
5.492249999999992838e+01 1.307599457821768272e-117
5.513624999999993292e+01 1.532162888368504941e-117
5.534999999999990905e+01 1.462671189116080873e-117
5.556374999999991360e+01 9.600384135696183817e-118
5.577749999999991815e+01 -6.760486569461885724e-119
5.599124999999992269e+01 -1.614816785393442641e-117
5.620499999999992724e+01 -3.531887571576098206e-117
5.641874999999993179e+01 -5.497038951597154056e-117
5.663249999999990791e+01 -7.026103675831031341e-117
5.684624999999991246e+01 -7.535377427968641931e-117
5.705999999999991701e+01 -6.463777443027219932e-117
5.727374999999992156e+01 -3.443246904723663118e-117
5.748749999999992610e+01 1.516832285159637395e-117
5.770124999999993065e+01 7.889646923291475953e-117
5.791499999999990678e+01 1.461038954590993648e-116
5.812874999999991132e+01 2.024760986667550509e-116
5.834249999999991587e+01 2.340539312544108226e-116
5.855624999999992042e+01 2.332257606253584332e-116
5.876999999999992497e+01 2.052507540218922382e-116
5.898374999999992951e+01 1.725777022168850803e-116
5.919749999999990564e+01 1.731240023042457169e-116
5.941124999999991019e+01 2.483850836495685015e-116
5.962499999999991473e+01 4.185079334049808108e-116
5.983874999999991928e+01 6.449945816717481026e-116
6.005249999999992383e+01 7.878641688960946203e-116
6.026624999999992838e+01 5.724979029283659270e-116
6.047999999999990450e+01 -4.095731562038577076e-116
6.069374999999990905e+01 -2.635110775873176173e-115
6.090749999999991360e+01 -6.488542635525193804e-115
6.112124999999991815e+01 -1.198916310291888340e-114
6.133499999999992269e+01 -1.842010999269491673e-114
6.154874999999992724e+01 -2.392452216367623781e-114
6.176249999999993179e+01 -2.520307151375472655e-114
6.197624999999990791e+01 -1.752123264282066868e-114
6.218999999999991246e+01 4.709171782381822388e-115
6.240374999999991701e+01 4.650664027207273496e-114
6.261749999999992156e+01 1.098811499945809861e-113
6.283124999999992610e+01 1.904394167591872444e-113
6.304499999999993065e+01 2.734930847488943670e-113
6.325874999999990678e+01 3.306816805550369676e-113
6.347249999999991132e+01 3.187533666762933561e-113
6.368624999999991587e+01 1.826946660040568141e-113
6.389999999999992042e+01 -1.343908568457807753e-113
6.411374999999992497e+01 -6.727206097171294122e-113
6.432749999999992951e+01 -1.428152406262214964e-112
6.454124999999990564e+01 -2.317761233085354595e-112
6.475499999999991019e+01 -3.145216403171930858e-112
6.496874999999991473e+01 -3.577643742755682038e-112
6.518249999999991928e+01 -3.150777375929391377e-112
6.539624999999992383e+01 -1.322568522836419530e-112
6.560999999999992838e+01 2.405421568031958116e-112
6.582374999999990450e+01 8.287433618039977261e-112
6.603749999999990905e+01 1.605997553396076461e-111
6.625124999999991360e+01 2.463042623303483417e-111
6.646499999999991815e+01 3.180170845450754387e-111
6.667874999999992269e+01 3.415051606401629489e-111
6.689249999999992724e+01 2.721413218924045543e-111
6.710624999999990337e+01 6.155818786887270222e-112
6.731999999999990791e+01 -3.295030890610961787e-111
6.753374999999991246e+01 -9.116988703769542823e-111
6.774749999999991701e+01 -1.642299290617381461e-110
6.796124999999992156e+01 -2.399160243355088004e-110
6.817499999999992610e+01 -2.960853144122342132e-110
6.838874999999990223e+01 -3.003790887537716739e-110
6.860249999999990678e+01 -2.129671620702323684e-110
6.881624999999991132e+01 6.337915892917795372e-112
6.902999999999991587e+01 3.856710322922263911e-110
6.924374999999992042e+01 9.234830659781123967e-110
6.945749999999992497e+01 1.567454508990705442e-109
6.967124999999990109e+01 2.194069578393949186e-109
6.988499999999990564e+01 2.595703185616802713e-109
7.009874999999991019e+01 2.484620275742296994e-109
7.031249999999991473e+01 1.524718119898744221e-109
7.052624999999991928e+01 -5.990741338815146360e-110
7.073999999999992383e+01 -4.068456356228833433e-109
7.095374999999989996e+01 -8.780722599818121629e-109
7.116749999999990450e+01 -1.417818714351384348e-108
7.138124999999990905e+01 -1.909670575932508264e-108
7.159499999999991360e+01 -2.169317347494306648e-108
7.180874999999991815e+01 -1.952961648925720830e-108
7.202249999999992269e+01 -9.897856791064192901e-109
7.223624999999989882e+01 9.546117392627938358e-109
7.244999999999990337e+01 3.981514593416097366e-108
7.266374999999990791e+01 7.935349120606209360e-108
7.287749999999991246e+01 1.227163860997123738e-107
7.309124999999991701e+01 1.595085154619173775e-107
7.330499999999992156e+01 1.740810063164198355e-107
7.351874999999989768e+01 1.466014823179892750e-107
7.373249999999990223e+01 5.612026715571610649e-108
7.394624999999990678e+01 -1.139173427307970987e-107
7.415999999999991132e+01 -3.676894083547840842e-107
7.437374999999991587e+01 -6.872472548987843336e-107
7.458749999999992042e+01 -1.022704904080207022e-106
7.480124999999992497e+01 -1.285255747137636804e-106
7.501499999999990109e+01 -1.347020976324473877e-106
7.522874999999990564e+01 -1.052412318045599915e-106
7.544249999999991019e+01 -2.454331221512022097e-107
7.565624999999991473e+01 1.184406143093483160e-106
7.586999999999991928e+01 3.238600082524177714e-106
7.608374999999992383e+01 5.735535626526591780e-106
7.629749999999989996e+01 8.240507325583621978e-106
7.651124999999990450e+01 1.002327864858167146e-105
7.672499999999990905e+01 1.007414365279640276e-105
7.693874999999991360e+01 7.212876003505246025e-106
7.715249999999991815e+01 3.205435992655469526e-107
7.736624999999992269e+01 -1.129198432844130802e-105
7.757999999999989882e+01 -2.739592877672403881e-105
7.779374999999990337e+01 -4.630034587519511241e-105
7.800749999999990791e+01 -6.437358119662497002e-105
7.822124999999991246e+01 -7.581355172349530116e-105
7.843499999999991701e+01 -7.289805930027285008e-105
7.864874999999992156e+01 -4.695855733660855962e-105
7.886249999999989768e+01 9.729912654162676279e-106
7.907624999999990223e+01 1.010898905372525146e-104
7.928999999999990678e+01 2.236078612215862698e-104
7.950374999999991132e+01 3.624713872539345485e-104
7.971749999999991587e+01 4.884447815583020478e-104
7.993124999999992042e+01 5.568674811940928331e-104
8.014499999999989654e+01 5.104455011145912895e-104
8.035874999999990109e+01 2.874953626484447078e-104
8.057249999999990564e+01 -1.631971028646485969e-104
8.078624999999991019e+01 -8.608936465689542022e-104
8.099999999999991473e+01 -1.766685621582376825e-103
8.121374999999991928e+01 -2.757007884119628617e-103
8.142749999999989541e+01 -3.604301104709204317e-103
8.164124999999989996e+01 -3.974952324990066705e-103
8.185499999999990450e+01 -3.456190578958028287e-103
8.206874999999990905e+01 -1.622807095210826519e-103
8.228249999999991360e+01 1.849861135550147768e-103
8.249624999999991815e+01 7.029337730614494935e-103
8.270999999999989427e+01 1.354257284646195320e-102
8.292374999999989882e+01 2.040073578713848892e-102
8.313749999999990337e+01 2.588721037036932811e-102
8.335124999999990791e+01 2.758063820196322743e-102
8.356499999999991246e+01 2.259196739237278978e-102
8.377874999999991701e+01 8.083653447121014692e-103
8.399249999999989313e+01 -1.789777627963651263e-102
8.420624999999989768e+01 -5.531356908147531326e-102
8.441999999999990223e+01 -1.008883596188252612e-101
8.463374999999990678e+01 -1.469947274574135148e-101
8.484749999999991132e+01 -1.810615166432017188e-101
8.506124999999991587e+01 -1.859999559067963260e-101
8.527499999999989200e+01 -1.421634911383001717e-101
8.548874999999989654e+01 -3.124752362235799293e-102
8.570249999999990109e+01 1.577568290749018517e-101
8.591624999999990564e+01 4.209460894808239454e-101
8.612999999999991019e+01 7.313243476795987393e-101
8.634374999999991473e+01 1.031997130274907350e-100
8.655749999999989086e+01 1.233489004062251283e-100
8.677124999999989541e+01 1.218478323325123200e-100
8.698499999999989996e+01 8.572000063616494848e-101
8.719874999999990450e+01 3.579089051103696846e-102
8.741249999999990905e+01 -1.302357078972107657e-100
8.762624999999991360e+01 -3.105750070666463335e-100
8.783999999999991815e+01 -5.162754257147113941e-100
8.805374999999989427e+01 -7.062067833119883941e-100
8.826749999999989882e+01 -8.184284207560901476e-100
8.848124999999990337e+01 -7.745815001450494087e-100
8.869499999999990791e+01 -4.914861253557784436e-100
8.890874999999991246e+01 9.888719562091860793e-101
8.912249999999991701e+01 1.021508803565982466e-99
8.933624999999989313e+01 2.225336785812068068e-99
8.954999999999989768e+01 3.551349518184256123e-99
8.976374999999990223e+01 4.710954340392055362e-99
8.997749999999990678e+01 5.286952537326757572e-99
9.019124999999991132e+01 4.770347578451548068e-99
9.040499999999991587e+01 2.644395248342171319e-99
9.061874999999989200e+01 -1.478858033870317735e-99
9.083249999999989654e+01 -7.675568166952565897e-99
9.104624999999990109e+01 -1.550296234499003914e-98
9.125999999999990564e+01 -2.381033520686964865e-98
9.147374999999991019e+01 -3.063057103804460781e-98
9.168749999999991473e+01 -3.322959707756528486e-98
9.190124999999989086e+01 -2.839388527355597136e-98
9.211499999999989541e+01 -1.301853843916398559e-98
9.232874999999989996e+01 1.498652839691577653e-98
9.254249999999990450e+01 5.553110979114398035e-98
9.275624999999990905e+01 1.050838631922923634e-97
9.296999999999991360e+01 1.556021904733329284e-97
9.318374999999988972e+01 1.940548253325077159e-97
9.339749999999989427e+01 2.030134686114953276e-97
9.361124999999989882e+01 1.627782157998282526e-97
9.382499999999990337e+01 5.535706579611227723e-98
9.403874999999990791e+01 -1.296954963163101387e-97
9.425249999999991246e+01 -3.880755512605240500e-97
9.446624999999988859e+01 -6.933125776205410897e-97
9.467999999999989313e+01 -9.910118859977688288e-97
9.489374999999989768e+01 -1.197265937926744035e-96
9.510749999999990223e+01 -1.204068444267098156e-96
9.532124999999990678e+01 -8.943124550134707113e-97
9.553499999999991132e+01 -1.678604812645063111e-97
9.574874999999988745e+01 1.021945808787085554e-96
9.596249999999989200e+01 2.625132944818306288e-96
9.617624999999989654e+01 4.453048726157253433e-96
9.638999999999990109e+01 6.149295823251246755e-96
9.660374999999990564e+01 7.188811394469495906e-96
9.681749999999991019e+01 6.921355598185233663e-96
9.703124999999988631e+01 4.673038419046047129e-96
9.724499999999989086e+01 -8.825540724742709374e-98
9.745874999999989541e+01 -7.531410154964488342e-96
9.767249999999989996e+01 -1.721182854102199414e-95
9.788624999999990450e+01 -2.784263703039777046e-95
9.809999999999990905e+01 -3.716015528403989684e-95
9.831374999999988518e+01 -4.197226833230607052e-95
9.852749999999988972e+01 -3.847945866710064698e-95
9.874124999999989427e+01 -2.293614674988417483e-95
9.895499999999989882e+01 7.332416439117317634e-96
9.916874999999990337e+01 5.262809401033370358e-95
9.938249999999990791e+01 1.094776129919847661e-94
9.959624999999988404e+01 1.694442631001417687e-94
9.980999999999988859e+01 2.185852990773024261e-94
1.000237499999998931e+02 2.380553135589119056e-94
1.002374999999998977e+02 2.063300645788567887e-94
1.004512499999999022e+02 1.033600888196638695e-94
1.006649999999999068e+02 -8.337402564976902923e-95
1.008787499999998829e+02 -3.514480166738280144e-94
1.010924999999998875e+02 -6.759196341112976157e-94
1.013062499999998920e+02 -1.003488477073547595e-93
1.015199999999998965e+02 -1.250864742218195939e-93
1.017337499999999011e+02 -1.310068039982838310e-93
1.019474999999999056e+02 -1.063044483685711965e-93
1.021612499999999102e+02 -4.068513193976262893e-94
1.023749999999998863e+02 7.114239727174028053e-94
1.025887499999998909e+02 2.253832860216845003e-93
1.028024999999998954e+02 4.052249617489597043e-93
1.030162499999999000e+02 5.781601921571716396e-93
1.032299999999999045e+02 6.959347220951940090e-93
1.034437499999999091e+02 6.985423307754850550e-93
1.036574999999998852e+02 5.234012277250858628e-93
1.038712499999998897e+02 1.201077246532640692e-93
1.040849999999998943e+02 -5.300710601292374611e-93
1.042987499999998988e+02 -1.392476993831241265e-92
1.045124999999999034e+02 -2.359535471473777285e-92
1.047262499999999079e+02 -3.239624993910118226e-92
1.049399999999998840e+02 -3.761656272796693530e-92
1.051537499999998886e+02 -3.602486959513137875e-92
1.053674999999998931e+02 -2.442170116956876712e-92
1.055812499999998977e+02 -4.749813424282122105e-94
1.057949999999999022e+02 3.622732139130494631e-92
1.060087499999999068e+02 8.306334929119008339e-92
1.062224999999998829e+02 1.334556561540991956e-91
1.064362499999998875e+02 1.764779567073009559e-91
1.066499999999998920e+02 1.973664167000875902e-91
1.068637499999998965e+02 1.792755418184783353e-91
1.070774999999999011e+02 1.064768349446018497e-91
1.072912499999999056e+02 -3.106767659055490250e-92
1.075049999999998818e+02 -2.322110543686481365e-91
1.077187499999998863e+02 -4.791292880539797019e-91
1.079324999999998909e+02 -7.332290736514751646e-91
1.081462499999998954e+02 -9.342149119419721908e-91
1.083599999999999000e+02 -1.004173391036708576e-90
1.085737499999999045e+02 -8.582082095685647496e-91
1.087874999999998806e+02 -4.222795134318726562e-91
1.090012499999998852e+02 3.425931278781883760e-91
1.092149999999998897e+02 1.412644922443914799e-90
1.094287499999998943e+02 2.675421981986082391e-90
1.096424999999998988e+02 3.913010015689026374e-90
1.098562499999999034e+02 4.803304537364488889e-90
1.100699999999998795e+02 4.948110866874940927e-90
1.102837499999998840e+02 3.934519438682168287e-90
1.104974999999998886e+02 1.430855222683280760e-90
1.107112499999998931e+02 -2.689552856955090569e-90
1.109249999999998977e+02 -8.213913207172607137e-90
1.111387499999999022e+02 -1.447319390498547087e-89
1.113524999999998784e+02 -2.028109419513397631e-89
1.115662499999998829e+02 -2.397178024274779486e-89
1.117799999999998875e+02 -2.357599725055451527e-89
1.119937499999998920e+02 -1.716014401963975473e-89
1.122074999999998965e+02 -3.324286836399821548e-90
1.124212499999999011e+02 1.818661009560664219e-89
1.126349999999998772e+02 4.585472557816842917e-89
1.128487499999998818e+02 7.589273820695033206e-89
1.130624999999998863e+02 1.020663730924780871e-88
1.132762499999998909e+02 1.160364272855944563e-88
1.134899999999998954e+02 1.083891011611562638e-88
1.137037499999999000e+02 7.043464298871662957e-89
1.139174999999998761e+02 -3.297546021183170248e-90
1.141312499999998806e+02 -1.121467847652806118e-88
1.143449999999998852e+02 -2.465099626720219199e-88
1.145587499999998897e+02 -3.858745025434559715e-88
1.147724999999998943e+02 -4.985878763447196883e-88
1.149862499999998988e+02 -5.442561111975809348e-88
1.151999999999998749e+02 -4.794428723644994670e-88
1.154137499999998795e+02 -2.668481524190392652e-88
1.156274999999998840e+02 1.126263457736285921e-88
1.158412499999998886e+02 6.465114248222416617e-88
1.160549999999998931e+02 1.278765006752354147e-87
1.162687499999998977e+02 1.902716716870064185e-87
1.164824999999999022e+02 2.363036983575929776e-87
1.166962499999998784e+02 2.470517363707018632e-87
1.169099999999998829e+02 2.032095045618508676e-87
1.171237499999998875e+02 8.959669100056569352e-88
1.173374999999998920e+02 -9.921254197720915659e-88
1.175512499999998965e+02 -3.529924523133354701e-87
1.177649999999999011e+02 -6.410108226834166519e-87
1.179787499999998772e+02 -9.098843719482946006e-87
1.181924999999998818e+02 -1.085928493442616302e-86
1.184062499999998863e+02 -1.083519562526519935e-86
1.186199999999998909e+02 -8.202288775803094851e-87
1.188337499999998954e+02 -2.381922854461363476e-87
1.190474999999999000e+02 6.705821814008532516e-87
1.192612499999998761e+02 1.839279780629034338e-86
1.194749999999998806e+02 3.107918905230422428e-86
1.196887499999998852e+02 4.219016805492781395e-86
1.199024999999998897e+02 4.834746683524885392e-86
1.201162499999998943e+02 4.581262485269884849e-86
1.203299999999998988e+02 3.121889696899992038e-86
1.205437499999998749e+02 2.546852793006176795e-87
1.207574999999998795e+02 -3.978044847744667359e-86
1.209712499999998840e+02 -9.189176884737027260e-86
1.211849999999998886e+02 -1.458333536993972359e-85
1.213987499999998931e+02 -1.896254151005743541e-85
1.216124999999998977e+02 -2.083064306251744466e-85
1.218262499999998738e+02 -1.861582212643649320e-85
1.220399999999998784e+02 -1.101078361026250603e-85
1.222537499999998829e+02 2.598153487396043531e-86
1.224674999999998875e+02 2.167593926519045175e-85
1.226812499999998920e+02 4.415468233691730839e-85
1.228949999999998965e+02 6.624360358055081777e-85
1.231087499999998727e+02 8.256417119520175979e-85
1.233224999999998772e+02 8.672177387355466110e-85
1.235362499999998818e+02 7.237021455778350403e-85
1.237499999999998863e+02 3.473261775564156066e-85
1.239637499999998909e+02 -2.758224288015141374e-85
1.241774999999998954e+02 -1.107698109011318207e-84
1.243912499999998715e+02 -2.044574653847849025e-84
1.246049999999998761e+02 -2.912855733701175004e-84
1.248187499999998806e+02 -3.479549239925802605e-84
1.250324999999998852e+02 -3.481281583281058275e-84