2.024999999999579359e-01 1.692045700322613813e-130
4.162499999999482725e-01 -3.015330909834475252e-131
6.299999999999528200e-01 -4.619956427687878532e-130
8.437499999999573674e-01 -1.196344232191571136e-129
1.057499999999947704e+00 -2.235225274407847223e-129
1.271249999999952252e+00 -3.426018513953884199e-129
1.484999999999956799e+00 -4.346812672760363407e-129
1.698749999999947136e+00 -4.189361122218615728e-129
1.912499999999951683e+00 -1.698864705489179438e-129
2.126249999999956231e+00 4.726222033921478574e-129
2.339999999999946567e+00 1.662784648848540017e-128
2.553749999999951115e+00 3.461064033631594144e-128
2.767499999999955662e+00 5.687555523876885420e-128
2.981249999999945999e+00 7.721642104930760385e-128
3.194999999999950546e+00 8.287859441639054498e-128
3.408749999999955094e+00 5.323615374077894806e-128
3.622499999999945430e+00 -3.903314349836992665e-128
3.836249999999949978e+00 -2.218931077586372335e-127
4.049999999999954525e+00 -5.103447688354382680e-127
4.263749999999944862e+00 -8.833718248031417360e-127
4.477499999999949409e+00 -1.252199536649613664e-126
4.691249999999953957e+00 -1.426011408422816010e-126
4.904999999999944293e+00 -1.089720443318618381e-126
5.118749999999948841e+00 1.809143602552724868e-127
5.332499999999953388e+00 2.831536743417538764e-126
5.546249999999943725e+00 7.130125462190208620e-126
5.759999999999948272e+00 1.283034109722548228e-125
5.973749999999952820e+00 1.871069326561205987e-125
6.187499999999943157e+00 2.208026926515123918e-125
6.401249999999947704e+00 1.845966482556480091e-125
6.614999999999952252e+00 1.789943293347988269e-126
6.828749999999942588e+00 -3.435012286548629375e-125
7.042499999999947136e+00 -9.400911599540794117e-125
7.256249999999951683e+00 -1.742909720814135258e-124
7.469999999999942020e+00 -2.591785453195305830e-124
7.683749999999946567e+00 -3.130168560156093947e-124
7.897499999999951115e+00 -2.764390430097699198e-124
8.111249999999941451e+00 -6.930340674958798485e-125
8.324999999999945999e+00 3.933203715653316833e-124
8.538749999999950546e+00 1.165961367466444336e-123
8.752499999999940883e+00 2.214901226183164955e-123
8.966249999999945430e+00 3.341368086753928099e-123
9.179999999999949978e+00 4.102247099612300112e-123
9.393749999999940314e+00 3.762916715186300210e-123
9.607499999999944862e+00 1.337217340838251374e-123
9.821249999999949409e+00 -4.215048210641682810e-123
1.003499999999993975e+01 -1.356451738005025665e-122
1.024874999999994429e+01 -2.632946109781713918e-122
1.046249999999994884e+01 -4.018678004649398241e-122
1.067624999999993918e+01 -4.997707708243078525e-122
1.088999999999994373e+01 -4.720506698447153976e-122
1.110374999999994827e+01 -2.055203435132367931e-122
1.131749999999993861e+01 4.183701048713291272e-122
1.153124999999994316e+01 1.475858043665450663e-121
1.174499999999994770e+01 2.925627003947503454e-121
1.195874999999993804e+01 4.512889873667916883e-121
1.217249999999994259e+01 5.675476105307088600e-121
1.238624999999994714e+01 5.495294396580600645e-121
1.259999999999993747e+01 2.759563378299912221e-121
1.281374999999994202e+01 -3.791432599668191005e-121
1.302749999999994657e+01 -1.496308986639657222e-120
1.324124999999995111e+01 -3.033287662844583479e-120
1.345499999999994145e+01 -4.728616564033777128e-120
1.366874999999994600e+01 -6.010070566887243514e-120
1.388249999999995055e+01 -5.951640728541462508e-120
1.409624999999994088e+01 -3.341562458518178253e-120
1.430999999999994543e+01 3.067043435043675971e-120
1.452374999999994998e+01 1.406473068700869148e-119
1.473749999999994031e+01 2.924526739093806653e-119
1.495124999999994486e+01 4.610548159881021687e-119
1.516499999999994941e+01 5.922022152947523811e-119
1.537874999999993975e+01 5.990099591164447212e-119
1.559249999999994429e+01 3.690031929834017945e-119
1.580624999999994884e+01 -2.122471556086705120e-119
1.601999999999993918e+01 -1.216350196196480831e-118
1.623374999999994373e+01 -2.606451289194000180e-118
1.644749999999994827e+01 -4.159748653332036221e-118
1.666124999999993861e+01 -5.399588525343012332e-118
1.687499999999994316e+01 -5.572484530352230786e-118
1.708874999999994770e+01 -3.716428655399435324e-118
1.730249999999993804e+01 1.131909133149859006e-118
1.751624999999994259e+01 9.560515572742633068e-118
1.772999999999994714e+01 2.124839124884908121e-117
1.794374999999993747e+01 3.435990349080018088e-117
1.815749999999994202e+01 4.504803698646476489e-117
1.837124999999994657e+01 4.734652623493348860e-117
1.858499999999993690e+01 3.379555752351644402e-117
1.879874999999994145e+01 -2.876760852662197219e-118
1.901249999999994600e+01 -6.686284557055078585e-117
1.922624999999993634e+01 -1.553766570978090209e-116
1.943999999999994088e+01 -2.544958327351085443e-116
1.965374999999994543e+01 -3.361505466488228674e-116
1.986749999999993577e+01 -3.582505454784034620e-116
2.008124999999994031e+01 -2.701655933589440592e-116
2.029499999999994486e+01 -2.527667297051480050e-117
2.050874999999993520e+01 3.992330082428432224e-116
2.072249999999993975e+01 9.779111822083738071e-116
2.093624999999994429e+01 1.614109503460254338e-115
2.114999999999993463e+01 2.128524716911315523e-115
2.136374999999993918e+01 2.271381236373080542e-115
2.157749999999994373e+01 1.769161001434696024e-115
2.179124999999993406e+01 4.099570172026666497e-116
2.200499999999993861e+01 -1.842001456267590931e-115
2.221874999999994316e+01 -4.731315153615213433e-115
2.243249999999993349e+01 -7.645003293557046215e-115
2.264624999999993804e+01 -9.657027324028647027e-115
2.285999999999994259e+01 -9.739929019018468358e-115
2.307374999999993292e+01 -7.161581164699726608e-115
2.328749999999993747e+01 -2.006863036893489998e-115
2.350124999999994202e+01 4.349422392439327338e-115
2.371499999999993236e+01 9.114863730813234408e-115
2.392874999999993690e+01 8.672159165164966927e-115
2.414249999999994145e+01 2.228752518468210868e-116
2.435624999999993179e+01 -1.544448355057530588e-114
2.456999999999993634e+01 -3.052541612847351522e-114
2.478374999999994088e+01 -2.737906299248101218e-114
2.499749999999993122e+01 2.148673228500475450e-114
2.521124999999993577e+01 1.477247068443390936e-113
2.542499999999994031e+01 3.729253094544586172e-113
2.563874999999993065e+01 6.845800265479345338e-113
2.585249999999993520e+01 1.004604147300540102e-112
2.606624999999993975e+01 1.158797851671584910e-112
2.627999999999994429e+01 8.633556899531627382e-113
2.649374999999993463e+01 -2.479926882780635169e-113
2.670749999999993918e+01 -2.529078729287223445e-112
2.692124999999994373e+01 -6.137082184605771912e-112
2.713499999999993406e+01 -1.075801008107760432e-111
2.734874999999993861e+01 -1.528080938598425024e-111
2.756249999999994316e+01 -1.751828998559642970e-111
2.777624999999993349e+01 -1.414301908147680556e-111
2.798999999999993804e+01 -1.066427091946129953e-112
2.820374999999994259e+01 2.549491624706079295e-111
2.841749999999993292e+01 6.709613383184603000e-111
2.863124999999993747e+01 1.203256537663575445e-110
2.884499999999994202e+01 1.736724427853287706e-110
2.905874999999993236e+01 2.049541078297830362e-110
2.927249999999993690e+01 1.808640575802189051e-110
2.948624999999994145e+01 6.067994284711074739e-111
2.969999999999993179e+01 -1.937553757912135826e-110
2.991374999999993634e+01 -6.003906413671013518e-110
3.012749999999994088e+01 -1.132154025794193408e-109
3.034124999999993122e+01 -1.688725016362130452e-109
3.055499999999993577e+01 -2.073130190490249774e-109
3.076874999999994031e+01 -1.986365666254421256e-109
3.098249999999993065e+01 -1.057147425936657004e-109
3.119624999999993520e+01 1.075639885674202986e-109
3.140999999999993975e+01 4.616117359591229194e-109
3.162374999999993008e+01 9.403614509262847785e-109
3.183749999999993463e+01 1.467315297255230123e-108
3.205124999999993918e+01 1.884882317446784081e-108
3.226499999999992951e+01 1.947374438693948949e-108
3.247874999999993406e+01 1.341143533737748627e-108
3.269249999999993861e+01 -2.541073417847649689e-109
3.290624999999992895e+01 -3.052996195230226761e-108
3.311999999999993349e+01 -7.002304397373023581e-108
3.333374999999993804e+01 -1.158923287730343425e-107
3.354749999999992838e+01 -1.566657591094638803e-107
3.376124999999993292e+01 -1.737073709102841857e-107
3.397499999999993747e+01 -1.423291157927696610e-107
3.418874999999992781e+01 -3.590693166590812407e-108
3.440249999999993236e+01 1.661856432270042047e-107
3.461624999999993690e+01 4.667515307920659703e-107
3.482999999999992724e+01 8.362866207093372004e-107
3.504374999999993179e+01 1.198912819598592572e-106
3.525749999999993634e+01 1.423915733795898060e-106
3.547124999999992667e+01 1.329931187858753742e-106
3.568499999999993122e+01 7.096001903025153897e-107
3.589874999999993577e+01 -6.188287131871868925e-107
3.611249999999992610e+01 -2.730971558476402458e-106
3.632624999999993065e+01 -5.493243721047787357e-106
3.653999999999993520e+01 -8.455772764622274373e-106
3.675374999999992554e+01 -1.077425763605581414e-105
3.696749999999993008e+01 -1.120732372326108299e-105
3.718124999999993463e+01 -8.243536814755619031e-106
3.739499999999992497e+01 -4.072847335908697672e-107
3.760874999999992951e+01 1.323174067220722048e-105
3.782249999999993406e+01 3.237000966473777799e-105
3.803624999999993861e+01 5.470200107897614014e-105
3.824999999999994316e+01 7.526544650817162559e-105
3.846374999999991928e+01 8.618783438474028921e-105
3.867749999999992383e+01 7.718882197511484531e-105
3.889124999999992838e+01 3.719227987514878737e-105
3.910499999999993292e+01 -4.271116492316589545e-105
3.931874999999993747e+01 -1.649729980768357033e-104
3.953249999999994202e+01 -3.204177467757936885e-104
3.974624999999991815e+01 -4.832166116415994679e-104
3.995999999999992269e+01 -6.076521291665108060e-104
4.017374999999992724e+01 -6.288535302477831646e-104
4.038749999999993179e+01 -4.698952684913341856e-104
4.060124999999993634e+01 -5.727904172796707138e-105
4.081499999999994088e+01 6.543967618507697419e-104
4.102874999999991701e+01 1.650008716473253186e-103
4.124249999999992156e+01 2.818379201920501265e-103
4.145624999999992610e+01 3.922210974609952885e-103
4.166999999999993065e+01 4.585920859806869274e-103
4.188374999999993520e+01 4.316503697074528599e-103
4.209749999999993975e+01 2.572574990555083258e-103
4.231124999999991587e+01 -1.107586738755279174e-103
4.252499999999992042e+01 -6.918315218038478281e-103
4.273874999999992497e+01 -1.455515877310946708e-102
4.295249999999992951e+01 -2.297844836608056136e-102
4.316624999999993406e+01 -3.023640892347385254e-102
4.337999999999993861e+01 -3.343649867340987601e-102
4.359374999999991473e+01 -2.896813594446151650e-102
4.380749999999991928e+01 -1.307482031295470929e-102
4.402124999999992383e+01 1.716199825965020170e-102
4.423499999999992838e+01 6.244050825077741982e-102
4.444874999999993292e+01 1.195907832058500502e-101
4.466249999999993747e+01 1.799546986005833545e-101
4.487624999999991360e+01 2.282678340798970706e-101
4.508999999999991815e+01 2.426845401786771305e-101
4.530374999999992269e+01 1.966845016172056947e-101
4.551749999999992724e+01 6.355424756505797631e-102
4.573124999999993179e+01 -1.761307871982171612e-101
4.594499999999993634e+01 -5.241618661663544052e-101
4.615874999999991246e+01 -9.525276514715188093e-101
4.637249999999991701e+01 -1.391663860970522688e-100
4.658624999999992156e+01 -1.722745011596412899e-100
4.679999999999992610e+01 -1.778917705864479428e-100
4.701374999999993065e+01 -1.361112083417380354e-100
4.722749999999993520e+01 -2.736840340838237185e-101
4.744124999999993975e+01 1.617023830307971299e-100
4.765499999999991587e+01 4.302655577470128263e-100
4.786874999999992042e+01 7.540030268840365186e-100
4.808249999999992497e+01 1.076386713839300058e-99
4.829624999999992951e+01 1.303424059492303581e-99
4.850999999999993406e+01 1.305767578544737454e-99
4.872374999999993861e+01 9.325657816238382631e-100
4.893749999999991473e+01 4.095146633472473701e-101
4.915124999999991928e+01 -1.456910046432664321e-99
4.936499999999992383e+01 -3.531191413846709766e-99
4.957874999999992838e+01 -5.964150738461908203e-99
4.979249999999993292e+01 -8.287892071873655792e-99
5.000624999999993747e+01 -9.753989924032985037e-99
5.021999999999991360e+01 -9.365457055157571497e-99
5.043374999999991815e+01 -6.003484501320030962e-99
5.064749999999992269e+01 1.325114600011110303e-99
5.086124999999992724e+01 1.311251246994949603e-98
5.107499999999993179e+01 2.887269993411588671e-98
5.128874999999993634e+01 4.663662369378264044e-98
5.150249999999991246e+01 6.255125479855621264e-98
5.171624999999991701e+01 7.077039978431595992e-98
5.192999999999992156e+01 6.386198189075919183e-98
5.214374999999992610e+01 3.395029597681593588e-98
5.235749999999993065e+01 -2.526408810989487827e-98
5.257124999999993520e+01 -1.156322123666466695e-97
5.278499999999991132e+01 -2.311277646679335232e-97
5.299874999999991587e+01 -3.545132819036055150e-97
5.321249999999992042e+01 -4.551460396616605621e-97
5.342624999999992497e+01 -4.893021004824234096e-97
5.363999999999992951e+01 -4.045353203281355060e-97
5.385374999999993406e+01 -1.493651423216458591e-97
5.406749999999991019e+01 3.111598629326614098e-97
5.428124999999991473e+01 9.748554703968039873e-97
5.449499999999991928e+01 1.779586870507107368e-96
5.470874999999992383e+01 2.583502153400511042e-96
5.492249999999992838e+01 3.155962678128423219e-96
5.513624999999993292e+01 3.188459432035106903e-96
5.534999999999990905e+01 2.334751507488266378e-96
5.556374999999991360e+01 2.866930464806601815e-97
5.577749999999991815e+01 -3.114124505634673212e-96
5.599124999999992269e+01 -7.739028075464939406e-96
5.620499999999992724e+01 -1.303286923781819691e-95
5.641874999999993179e+01 -1.791115642861778363e-95
5.663249999999990791e+01 -2.074513487591384199e-95
5.684624999999991246e+01 -1.949208631636886941e-95
5.705999999999991701e+01 -1.202114613169088456e-95
5.727374999999992156e+01 3.340466131930520562e-96
5.748749999999992610e+01 2.706338308386703994e-95
5.770124999999993065e+01 5.756584337602955323e-95
5.791499999999990678e+01 9.043271965796510801e-95
5.812874999999991132e+01 1.179628418594648573e-94
5.834249999999991587e+01 1.293634225165855850e-94
5.855624999999992042e+01 1.119159995606235694e-94
5.876999999999992497e+01 5.335706636348039254e-95
5.898374999999992951e+01 -5.447871265709523792e-95
5.919749999999990564e+01 -2.110251483690400001e-94
5.941124999999991019e+01 -4.020617446398994065e-94
5.962499999999991473e+01 -5.956819726450520863e-94
5.983874999999991928e+01 -7.407623299144818295e-94
6.005249999999992383e+01 -7.697754397436733113e-94
6.026624999999992838e+01 -6.076555133829251015e-94
6.047999999999990450e+01 -1.877522954272479890e-94
6.069374999999990905e+01 5.254171865385597350e-94
6.090749999999991360e+01 1.508897510357249494e-93
6.112124999999991815e+01 2.654264977383513570e-93
6.133499999999992269e+01 3.748187149621285529e-93
6.154874999999992724e+01 4.469984565135053368e-93
6.176249999999993179e+01 4.416317489288171136e-93
6.197624999999990791e+01 3.161550846482013203e-93
6.218999999999991246e+01 3.576730237075023277e-94
6.240374999999991701e+01 -4.130604295307030181e-93
6.261749999999992156e+01 -1.007154244374118902e-92
6.283124999999992610e+01 -1.672260666284802296e-92
6.304499999999993065e+01 -2.274049191691649887e-92
6.325874999999990678e+01 -2.619787188066680591e-92
6.347249999999991132e+01 -2.476105680781739536e-92
6.368624999999991587e+01 -1.607075394998773439e-92
6.389999999999992042e+01 1.661164236332208822e-93
6.411374999999992497e+01 2.887438017260695731e-92
6.432749999999992951e+01 6.380330235923909877e-92
6.454124999999990564e+01 1.017167444287666756e-91
6.475499999999991019e+01 1.345010714188307384e-91
6.496874999999991473e+01 1.508803557898763852e-91
6.518249999999991928e+01 1.375645765453272006e-91
6.539624999999992383e+01 8.153956281021410789e-92
6.560999999999992838e+01 -2.646058921962666497e-92
6.582374999999990450e+01 -1.875346403761232139e-91
6.603749999999990905e+01 -3.898520534541104740e-91
6.625124999999991360e+01 -6.045652881458601322e-91
6.646499999999991815e+01 -7.837981655964167719e-91
6.667874999999992269e+01 -8.623525364398463222e-91
6.689249999999992724e+01 -7.647348080198048660e-91
6.710624999999990337e+01 -4.186389237351158278e-91
6.731999999999990791e+01 2.249820318954944407e-91
6.753374999999991246e+01 1.166710774347544526e-90
6.774749999999991701e+01 2.331874282808518157e-90
6.796124999999992156e+01 3.548060987573401650e-90
6.817499999999992610e+01 4.534997213993322797e-90
6.838874999999990223e+01 4.916146376775651781e-90
6.860249999999990678e+01 4.261067487811728402e-90
6.881624999999991132e+01 2.164775960851199813e-90
6.902999999999991587e+01 -1.635573370620085332e-90
6.924374999999992042e+01 -7.115652024774865471e-90
6.945749999999992497e+01 -1.381171644745131752e-89
6.967124999999990109e+01 -2.069586463933676717e-89
6.988499999999990564e+01 -2.612575755137289225e-89
7.009874999999991019e+01 -2.792286809812775220e-89
7.031249999999991473e+01 -2.363053924563957074e-89
7.052624999999991928e+01 -1.098565459850768314e-89
7.073999999999992383e+01 1.139818641929647921e-89
7.095374999999989996e+01 4.319351075321873500e-89
7.116749999999990450e+01 8.149688269268446110e-89
7.138124999999990905e+01 1.201490968351302824e-88
7.159499999999991360e+01 1.495131133635647972e-88
7.180874999999991815e+01 1.570202605927496186e-88
7.202249999999992269e+01 1.287694355008577088e-88
7.223624999999989882e+01 5.235008358958994253e-89
7.244999999999990337e+01 -7.916188322938583445e-89
7.266374999999990791e+01 -2.624175926600338223e-88
7.287749999999991246e+01 -4.790165624647451849e-88
7.309124999999991701e+01 -6.919732108784909247e-88
7.330499999999992156e+01 -8.450255144312231432e-88
7.351874999999989768e+01 -8.665252913254989147e-88
7.373249999999990223e+01 -6.794175343347499649e-88
7.394624999999990678e+01 -2.180636847161438648e-88
7.415999999999991132e+01 5.486988539699373624e-88
7.437374999999991587e+01 1.590819730333367852e-87
7.458749999999992042e+01 2.791531209833052483e-87
7.480124999999992497e+01 3.930340951293690248e-87
7.501499999999990109e+01 4.683530000130445510e-87
7.522874999999990564e+01 4.651506849370579077e-87
7.544249999999991019e+01 3.420460405640227969e-87
7.565624999999991473e+01 6.608755662223108555e-88
7.586999999999991928e+01 -3.742704730979083750e-87
7.608374999999992383e+01 -9.547408605031377522e-87
7.629749999999989996e+01 -1.602273203332707758e-86
7.651124999999990450e+01 -2.187757718629535270e-86
7.672499999999990905e+01 -2.529250673410966659e-86
7.693874999999991360e+01 -2.410489084814221607e-86
7.715249999999991815e+01 -1.618041149836602885e-86
7.736624999999992269e+01 2.604334187070206064e-89
7.757999999999989882e+01 2.476438106052705392e-86
7.779374999999990337e+01 5.624330255762962474e-86
7.800749999999990791e+01 9.001502015278123796e-86
7.822124999999991246e+01 1.187173383649347330e-85
7.843499999999991701e+01 1.324263783004005839e-85
7.864874999999992156e+01 1.198483853452349904e-85
7.886249999999989768e+01 7.048234974430484161e-86
7.907624999999990223e+01 -2.229575047763928881e-86
7.928999999999990678e+01 -1.575383205582041238e-85
7.950374999999991132e+01 -3.230498671684754929e-85
7.971749999999991587e+01 -4.926775039251184925e-85
7.993124999999992042e+01 -6.257574251691188259e-85
8.014499999999989654e+01 -6.699658801650268545e-85
8.035874999999990109e+01 -5.685930794011334334e-85
8.057249999999990564e+01 -2.726502222495973099e-85
8.078624999999991019e+01 2.428031651627672985e-85
8.099999999999991473e+01 9.601108715399114157e-85
8.121374999999991928e+01 1.801829432553279643e-84
8.142749999999989541e+01 2.619940801104647897e-84
8.164124999999989996e+01 3.197436314430102910e-84
8.185499999999990450e+01 3.268109821960304922e-84
8.206874999999990905e+01 2.558719672803438965e-84
8.228249999999991360e+01 8.541048568859606021e-85
8.249624999999991815e+01 -1.919669399418328399e-84
8.270999999999989427e+01 -5.606073726268124634e-84
8.292374999999989882e+01 -9.742206727142721459e-84
8.313749999999990337e+01 -1.352193765955195614e-83
8.335124999999990791e+01 -1.582675191110121152e-83
8.356499999999991246e+01 -1.535011379725485822e-83
8.377874999999991701e+01 -1.083042635496180045e-83
8.399249999999989313e+01 -1.387855980120921985e-84
8.420624999999989768e+01 1.306806933183643828e-83
8.441999999999990223e+01 3.142714552361313760e-83
8.463374999999990678e+01 5.106430787369256622e-83
8.484749999999991132e+01 6.774847704198879333e-83
8.506124999999991587e+01 7.590613319955352708e-83
8.527499999999989200e+01 6.934705031152024101e-83
8.548874999999989654e+01 4.249678305061587266e-83
8.570249999999990109e+01 -7.923900482831525369e-84
8.591624999999990564e+01 -8.097245914919211564e-83
8.612999999999991019e+01 -1.696686508975847687e-82
8.634374999999991473e+01 -2.597922207345227283e-82
8.655749999999989086e+01 -3.298875306466351618e-82
8.677124999999989541e+01 -3.530551999108831935e-82
8.698499999999989996e+01 -3.009476809885749711e-82
8.719874999999990450e+01 -1.500414489944497448e-82
8.741249999999990905e+01 1.102681285482316112e-82
8.762624999999991360e+01 4.688689348867558766e-82
8.783999999999991815e+01 8.852577976470904322e-82
8.805374999999989427e+01 1.285409570902505673e-81
8.826749999999989882e+01 1.563889442601649005e-81
8.848124999999990337e+01 1.594658042293677747e-81
8.869499999999990791e+01 1.252049507255533733e-81
8.890874999999991246e+01 4.416128370663429780e-82
8.912249999999991701e+01 -8.620510720221356476e-82
8.933624999999989313e+01 -2.576385464485874864e-81
8.954999999999989768e+01 -4.479887908676676990e-81
8.976374999999990223e+01 -6.200309925685331735e-81
8.997749999999990678e+01 -7.233943383331040023e-81
9.019124999999991132e+01 -7.005908096685707925e-81
9.040499999999991587e+01 -4.976034600745762282e-81
9.061874999999989200e+01 -7.860163295402847036e-82
9.083249999999989654e+01 5.568522365362472160e-81
9.104624999999990109e+01 1.357105873142993828e-80
9.125999999999990564e+01 2.206506748514743531e-80
9.147374999999991019e+01 2.923386370903885948e-80
9.168749999999991473e+01 3.273031227482301522e-80
9.190124999999989086e+01 2.999479223689165015e-80
9.211499999999989541e+01 1.877222110959598793e-80
9.232874999999989996e+01 -2.203984731881888150e-81
9.254249999999990450e+01 -3.244814328164329597e-80
9.275624999999990905e+01 -6.902527435895312019e-80
9.296999999999991360e+01 -1.061189098574743559e-79
9.318374999999988972e+01 -1.350896077540210548e-79
9.339749999999989427e+01 -1.452364007439481327e-79
9.361124999999989882e+01 -1.254027183283187729e-79
9.382499999999990337e+01 -6.643138667955042256e-80
9.403874999999990791e+01 3.572739788005704214e-80
9.425249999999991246e+01 1.766968888681345266e-79
9.446624999999988859e+01 3.408376868311357338e-79
9.467999999999989313e+01 4.997913261327643408e-79
9.489374999999989768e+01 6.133813249835608190e-79
9.510749999999990223e+01 6.337351253148417305e-79
9.532124999999990678e+01 5.131189349441577146e-79
9.553499999999991132e+01 2.153206068095111234e-79
9.574874999999988745e+01 -2.705001982621514068e-79
9.596249999999989200e+01 -9.156504740249010091e-79
9.617624999999989654e+01 -1.640638875277550084e-78
9.638999999999990109e+01 -2.310784932250715468e-78
9.660374999999990564e+01 -2.742858541865748504e-78
9.681749999999991019e+01 -2.726184356560520443e-78
9.703124999999988631e+01 -2.059789421342726808e-78
9.724499999999989086e+01 -6.041081672241459808e-79
9.745874999999989541e+01 1.658335076719380711e-78
9.767249999999989996e+01 4.563469397397123544e-78
9.788624999999990450e+01 7.721954597080144174e-78
9.809999999999990905e+01 1.050853417561409653e-77
9.831374999999988518e+01 1.210184565436052554e-77
9.852749999999988972e+01 1.158805845161452140e-77
9.874124999999989427e+01 8.132776336347066767e-78
9.895499999999989882e+01 1.211679424950916488e-78
9.916874999999990337e+01 -9.127590465811697630e-78
9.938249999999990791e+01 -2.201936917691311058e-77
9.959624999999988404e+01 -3.561412463710097643e-77
9.980999999999988859e+01 -4.706725630112256061e-77
1.000237499999998931e+02 -5.275415940673507811e-77
1.002374999999998977e+02 -4.876247247108649165e-77
1.004512499999999022e+02 -3.167072121742980052e-77
1.006649999999999068e+02 4.397476818258451902e-79
1.008787499999998829e+02 4.687024182668445757e-77
1.010924999999998875e+02 1.032999361812799710e-76
1.013062499999998920e+02 1.611717089808255457e-76
1.015199999999998965e+02 2.077833598171432318e-76
1.017337499999999011e+02 2.273750862429369889e-76
1.019474999999999056e+02 2.034026004645592034e-76
1.021612499999999102e+02 1.219955212537170210e-76
1.023749999999998863e+02 -2.367226863653853088e-77
1.025887499999998909e+02 -2.287033257070440148e-76
1.028024999999998954e+02 -4.724268988097695485e-76
1.030162499999999000e+02 -7.161838479006680870e-76
1.032299999999999045e+02 -9.042579066246833982e-76
1.034437499999999091e+02 -9.691173305629217748e-76
1.036574999999998852e+02 -8.416524491153834518e-76
1.038712499999998897e+02 -4.662511298343002899e-76
1.040849999999998943e+02 1.806196080714239822e-76
1.042987499999998988e+02 1.071036326896049749e-75
1.045124999999999034e+02 2.109514178305532223e-75
1.047262499999999079e+02 3.125259296674449725e-75
1.049399999999998840e+02 3.878162006358181162e-75
1.051537499999998886e+02 4.083116259860307162e-75
1.053674999999998931e+02 3.455066663466389989e-75
1.055812499999998977e+02 1.773515951992082584e-75
1.057949999999999022e+02 -1.039730025787174548e-75
1.060087499999999068e+02 -4.841471954519044289e-75
1.062224999999998829e+02 -9.203975353669207021e-75
1.064362499999998875e+02 -1.338886824848582736e-74
1.066499999999998920e+02 -1.637981742239572649e-74
1.068637499999998965e+02 -1.699173750465068282e-74
1.070774999999999011e+02 -1.406460221440827329e-74
1.072912499999999056e+02 -6.734312801758582229e-75
1.075049999999998818e+02 5.247452052000440615e-75
1.077187499999998863e+02 2.119537851744222744e-74
1.079324999999998909e+02 3.924673449561038159e-74
1.081462499999998954e+02 5.627756323899980161e-74
1.083599999999999000e+02 6.806511981550380849e-74
1.085737499999999045e+02 6.976400101674902198e-74
1.087874999999998806e+02 5.672161656866719592e-74
1.090012499999998852e+02 2.559362184461993890e-74
1.092149999999998897e+02 -2.436344980811792841e-74
1.094287499999998943e+02 -9.003584765608467079e-74
1.096424999999998988e+02 -1.635269133597140764e-73
1.098562499999999034e+02 -2.319052569008682634e-73
1.100699999999998795e+02 -2.779627396385167363e-73
1.102837499999998840e+02 -2.822332351882609960e-73
1.104974999999998886e+02 -2.263473666177341756e-73
1.107112499999998931e+02 -9.753357773278722266e-74
1.109249999999998977e+02 1.062557506182675381e-73
1.111387499999999022e+02 3.714666638278899800e-73
1.113524999999998784e+02 6.654911741210972573e-73
1.115662499999998829e+02 9.359836565924330253e-73
1.117799999999998875e+02 1.114228216379916387e-72
1.119937499999998920e+02 1.123469846592373102e-72
1.122074999999998965e+02 8.924020093925750679e-73
1.124212499999999011e+02 3.729491575183846041e-73
1.126349999999998772e+02 -4.398078116669796697e-73
1.128487499999998818e+02 -1.489053261549281128e-72
1.130624999999998863e+02 -2.643606357699804273e-72
1.132762499999998909e+02 -3.696387179015915536e-72
1.134899999999998954e+02 -4.378768597752392409e-72
1.137037499999999000e+02 -4.394052891475273981e-72
1.139174999999998761e+02 -3.470436817731233253e-72
1.141312499999998806e+02 -1.429731602725168490e-72
1.143449999999998852e+02 1.736803741524038506e-72
1.145587499999998897e+02 5.799125238074359633e-72
1.147724999999998943e+02 1.024314059956770612e-71
1.149862499999998988e+02 1.426880882889707116e-71
1.151999999999998749e+02 1.684908925474630606e-71
1.154137499999998795e+02 1.686092715661832715e-71
1.156274999999998840e+02 1.328828030623584061e-71
1.158412499999998886e+02 5.481649218472712530e-72
1.160549999999998931e+02 -6.559651247451108521e-72
1.162687499999998977e+02 -2.193424480905646538e-71
1.164824999999999022e+02 -3.868004105998605675e-71
1.166962499999998784e+02 -5.378075254647797313e-71
1.169099999999998829e+02 -6.339990386587567021e-71
1.171237499999998875e+02 -6.337984129781637561e-71
1.173374999999998920e+02 -5.000089033281159428e-71
1.175512499999998965e+02 -2.093832211181077670e-71
1.177649999999999011e+02 2.371122077410253652e-71
1.179787499999998772e+02 8.052578779296402675e-71
1.181924999999998818e+02 1.422152623511098146e-70
1.184062499999998863e+02 1.976914693192470834e-70
1.186199999999998909e+02 2.329677095680422713e-70
1.188337499999998954e+02 2.330093351680896707e-70
1.190474999999999000e+02 1.845007427456242084e-70
1.192612499999998761e+02 7.928697399500765969e-71
1.194749999999998806e+02 -8.198482406616814147e-71
1.196887499999998852e+02 -2.867174719564786913e-70
1.199024999999998897e+02 -5.085553325709683147e-70
1.201162499999998943e+02 -7.077910974574840071e-70
1.203299999999998988e+02 -8.347189433694214261e-70
1.205437499999998749e+02 -8.363131573425435836e-70
1.207574999999998795e+02 -6.660505149892787474e-70
1.209712499999998840e+02 -2.959677614097728200e-70
1.211849999999998886e+02 2.707541672874205438e-70
1.213987499999998931e+02 9.891174830821948322e-70
1.216124999999998977e+02 1.766465713788564302e-69
1.218262499999998738e+02 2.464432983075902794e-69
1.220399999999998784e+02 2.911079290228578889e-69
1.222537499999998829e+02 2.924336978191954870e-69
1.224674999999998875e+02 2.345935423758158977e-69
1.226812499999998920e+02 1.082491008244958200e-69
1.228949999999998965e+02 -8.522167864611881048e-70
1.231087499999998727e+02 -3.302121502950468402e-69
1.233224999999998772e+02 -5.950686300132575094e-69
1.235362499999998818e+02 -8.329367430490072226e-69
1.237499999999998863e+02 -9.860299073591688445e-69
1.239637499999998909e+02 -9.936323093253235158e-69
1.241774999999998954e+02 -8.034841505029230010e-69
1.243912499999998715e+02 -3.853755789371291526e-69
1.246049999999998761e+02 2.550852597195612794e-69
1.248187499999998806e+02 1.065299440198608043e-68
1.250324999999998852e+02 1.940281596717554294e-68
1.252462499999998897e+02 2.726117481410680680e-68
1.254599999999998943e+02 3.234572592110760856e-68
1.256737499999998704e+02 3.269632771126379282e-68
1.258874999999998749e+02 2.664567604199231307e-68