2.024999999999579359e-01 -2.139682540901944177e-141
4.162499999999482725e-01 -4.273906833377015550e-141
6.299999999999528200e-01 -6.734065438592343541e-141
8.437499999999573674e-01 -8.588936507227676897e-141
1.057499999999947704e+00 -8.096191861149101762e-141
1.271249999999952252e+00 -2.655235973574356507e-141
1.484999999999956799e+00 1.083827242451121805e-140
1.698749999999947136e+00 3.494693105022697250e-140
1.912499999999951683e+00 6.969029705940251153e-140
2.126249999999956231e+00 1.095152015414218788e-139
2.339999999999946567e+00 1.396185559410080810e-139
2.553749999999951115e+00 1.327825427574788956e-139
2.767499999999955662e+00 4.895575536136563692e-140
2.981249999999945999e+00 -1.590353531986414606e-139
3.194999999999950546e+00 -5.295344316281595788e-139
3.408749999999955094e+00 -1.062299254705420221e-138
3.622499999999945430e+00 -1.674346573941702068e-138
3.836249999999949978e+00 -2.147393865136458189e-138
4.049999999999954525e+00 -2.083822053058972290e-138
4.263749999999944862e+00 -9.026860702948845717e-139
4.477499999999949409e+00 2.077622976877384727e-138
4.691249999999953957e+00 7.414812200158673344e-138
4.904999999999944293e+00 1.512995047507098761e-137
5.118749999999948841e+00 2.410156458456781934e-137
5.332499999999953388e+00 3.134982905218725721e-137
5.546249999999943725e+00 3.143711655936093035e-137
5.759999999999948272e+00 1.639879504247381581e-137
5.973749999999952820e+00 -2.319149573618349373e-137
6.187499999999943157e+00 -9.531166714330793715e-137
6.401249999999947704e+00 -2.011414420739374221e-136
6.614999999999952252e+00 -3.271932415568828299e-136
6.828749999999942588e+00 -4.359331291550726230e-136
7.042499999999947136e+00 -4.576565739335550925e-136
7.256249999999951683e+00 -2.886874457282068927e-136
7.469999999999942020e+00 1.966640600368444591e-136
7.683749999999946567e+00 1.111520351526757947e-135
7.897499999999951115e+00 2.491470139093610557e-135
8.111249999999941451e+00 4.197154174625123927e-135
8.324999999999945999e+00 5.794745735057379824e-135
8.538749999999950546e+00 6.445059235144964954e-135
8.752499999999940883e+00 4.859479796502753479e-135
8.966249999999945430e+00 -5.894395914805377525e-136
9.179999999999949978e+00 -1.149365726261319002e-134
9.393749999999940314e+00 -2.866732873439377546e-134
9.607499999999944862e+00 -5.098686429383687178e-134
9.821249999999949409e+00 -7.389454692076015312e-134
1.003499999999993975e+01 -8.787418545445948948e-134
1.024874999999994429e+01 -7.753081055823395122e-134
1.046249999999994884e+01 -2.228531994636378808e-134
1.067624999999993918e+01 9.997568474601033488e-134
1.088999999999994373e+01 3.048640855783700757e-133
1.110374999999994827e+01 5.880651417135515072e-133
1.131749999999993861e+01 9.068084282769049564e-133
1.153124999999994316e+01 1.158997860548604736e-132
1.174499999999994770e+01 1.166588657186006586e-132
1.195874999999993804e+01 6.747168418094996176e-133
1.217249999999994259e+01 -6.168880798083667778e-133
1.238624999999994714e+01 -2.970600190472929895e-132
1.259999999999993747e+01 -6.458325531073493028e-132
1.281374999999994202e+01 -1.073437629041811265e-131
1.302749999999994657e+01 -1.475548666118923447e-131
1.324124999999995111e+01 -1.651528348035013461e-131
1.345499999999994145e+01 -1.292420612836223419e-131
1.366874999999994600e+01 -3.835861541342628734e-134
1.388249999999995055e+01 2.610097864002951860e-131
1.409624999999994088e+01 6.775257398637566852e-131
1.430999999999994543e+01 1.227328337038153275e-130
1.452374999999994998e+01 1.807915381136703510e-130
1.473749999999994031e+01 2.197966807571717160e-130
1.495124999999994486e+01 2.032243074621439954e-130
1.516499999999994941e+01 8.142105178445865064e-131
1.537874999999993975e+01 -2.000217640387887508e-130
1.559249999999994429e+01 -6.811753415414151899e-130
1.580624999999994884e+01 -1.355440339711199796e-129
1.601999999999993918e+01 -2.124802328506210717e-129
1.623374999999994373e+01 -2.749935150419376620e-129
1.644749999999994827e+01 -2.812164143777734750e-129
1.666124999999993861e+01 -1.716339159838311500e-129
1.687499999999994316e+01 1.225158543843463119e-129
1.708874999999994770e+01 6.582707911664422632e-129
1.730249999999993804e+01 1.444085463981764518e-128
1.751624999999994259e+01 2.387545460975073275e-128
1.772999999999994714e+01 3.235478588281066104e-128
1.794374999999993747e+01 3.525472985054397775e-128
1.815749999999994202e+01 2.581575634409184095e-128
1.837124999999994657e+01 -4.003692763365172442e-129
1.858499999999993690e+01 -6.127436449440196996e-128
1.879874999999994145e+01 -1.480692084848350109e-127
1.901249999999994600e+01 -2.557074030737887121e-127
1.922624999999993634e+01 -3.581207175070046008e-127
1.943999999999994088e+01 -4.063992310536571948e-127
1.965374999999994543e+01 -3.280262463578123454e-127
1.986749999999993577e+01 -3.560471985929148365e-128
2.008124999999994031e+01 5.497123375943218040e-127
2.029499999999994486e+01 1.456358719033483116e-126
2.050874999999993520e+01 2.602831146027513426e-126
2.072249999999993975e+01 3.729637384302376905e-126
2.093624999999994429e+01 4.344001718539369263e-126
2.114999999999993463e+01 3.712771465972545984e-126
2.136374999999993918e+01 9.508388115802266836e-127
2.157749999999994373e+01 -4.745231418656141086e-126
2.179124999999993406e+01 -1.368541518248348199e-125
2.200499999999993861e+01 -2.510921712422778707e-125
2.221874999999994316e+01 -3.653788877328557542e-125
2.243249999999993349e+01 -4.326449495196239330e-125
2.264624999999993804e+01 -3.831768140830103866e-125
2.285999999999994259e+01 -1.333299236086697420e-125
2.307374999999993292e+01 3.923253597909332847e-125
2.328749999999993747e+01 1.222853853749266153e-124
2.350124999999994202e+01 2.288633822213057242e-124
2.371499999999993236e+01 3.364128354013595774e-124
2.392874999999993690e+01 4.024975181686626011e-124
2.414249999999994145e+01 3.649128790646324737e-124
2.435624999999993179e+01 1.498971313867723283e-124
2.456999999999993634e+01 -3.080576555670007682e-124
2.478374999999994088e+01 -1.033065003665707388e-123
2.499749999999993122e+01 -1.963591824832399262e-123
2.521124999999993577e+01 -2.905616118372225364e-123
2.542499999999994031e+01 -3.499748059264343145e-123
2.563874999999993065e+01 -3.226788747683499003e-123
2.585249999999993520e+01 -1.480734652547612817e-123
2.606624999999993975e+01 2.265148503223716835e-123
2.627999999999994429e+01 8.189811420724998303e-123
2.649374999999993463e+01 1.577692237992013476e-122
2.670749999999993918e+01 2.346123939233865524e-122
2.692124999999994373e+01 2.840109173879776817e-122
2.713499999999993406e+01 2.656294238999601987e-122
2.734874999999993861e+01 1.332669646660947287e-122
2.756249999999994316e+01 -1.522042926276062751e-122
2.777624999999993349e+01 -6.027020369347429935e-122
2.798999999999993804e+01 -1.177796761620867629e-121
2.820374999999994259e+01 -1.760312705870263014e-121
2.841749999999993292e+01 -2.142371171400751492e-121
2.863124999999993747e+01 -2.034766671134510441e-121
2.884499999999994202e+01 -1.113191374476406960e-121
2.905874999999993236e+01 8.891887497952049433e-122
2.927249999999993690e+01 4.043729686642394023e-121
2.948624999999994145e+01 8.061224867114088824e-121
2.969999999999993179e+01 1.214083517643006107e-120
2.991374999999993634e+01 1.489734559883250248e-120
3.012749999999994088e+01 1.444639987147021270e-120
3.034124999999993122e+01 8.723806545598804217e-121
3.055499999999993577e+01 -3.918707848843915900e-121
3.076874999999994031e+01 -2.387014943933000582e-120
3.098249999999993065e+01 -4.930493028510082227e-120
3.119624999999993520e+01 -7.537687461249331630e-120
3.140999999999993975e+01 -9.393413314839659394e-120
3.162374999999993008e+01 -9.417124064076572560e-120
3.183749999999993463e+01 -6.455702013013397181e-120
3.205124999999993918e+01 3.867628810937379656e-121
3.226499999999992951e+01 1.131481749404685816e-119
3.247874999999993406e+01 2.538986291121991675e-119
3.269249999999993861e+01 4.020037725500781034e-119
3.290624999999992895e+01 5.182462326398547288e-119
3.311999999999993349e+01 5.524098404082875540e-119
3.333374999999993804e+01 4.526015625624975086e-119
3.354749999999992838e+01 1.790366001887271864e-119
3.376124999999993292e+01 -2.804092083532285022e-119
3.397499999999993747e+01 -8.973643684365580243e-119
3.418874999999992781e+01 -1.598066915378815189e-118
3.440249999999993236e+01 -2.270336608681209746e-118
3.461624999999993690e+01 -2.782365991932470126e-118
3.482999999999992724e+01 -3.006898478094227146e-118
3.504374999999993179e+01 -2.837322701684502570e-118
3.525749999999993634e+01 -2.178032060574876243e-118
3.547124999999992667e+01 -8.949670400428298261e-119
3.568499999999993122e+01 1.271550714664625776e-118
3.589874999999993577e+01 4.798463885739016254e-118
3.611249999999992610e+01 1.040051795301475416e-117
3.632624999999993065e+01 1.886357301480082715e-117
3.653999999999993520e+01 3.055995980647260597e-117
3.675374999999992554e+01 4.455932133517555465e-117
3.696749999999993008e+01 5.738450307036980451e-117
3.718124999999993463e+01 6.170779402707415705e-117
3.739499999999992497e+01 4.561831997941513864e-117
3.760874999999992951e+01 -6.564021091037489048e-118
3.782249999999993406e+01 -1.107555211724634909e-116
3.803624999999993861e+01 -2.758597768978094744e-116
3.824999999999994316e+01 -4.926062082256625400e-116
3.846374999999991928e+01 -7.198894964439182497e-116
3.867749999999992383e+01 -8.724282976094855829e-116
3.889124999999992838e+01 -8.163832477256983167e-116
3.910499999999993292e+01 -3.819389847169612616e-116
3.931874999999993747e+01 5.976367982734327348e-116
3.953249999999994202e+01 2.214048375496169922e-115
3.974624999999991815e+01 4.381108710792835054e-115
3.995999999999992269e+01 6.717370861396854068e-115
4.017374999999992724e+01 8.450105913036169479e-115
4.038749999999993179e+01 8.396944954922352996e-115
4.060124999999993634e+01 5.095512751441147264e-115
4.081499999999994088e+01 -2.851740273637170537e-115
4.102874999999991701e+01 -1.618257431837192164e-114
4.124249999999992156e+01 -3.416595252793623431e-114
4.145624999999992610e+01 -5.372640269015299887e-114
4.166999999999993065e+01 -6.878771583204640523e-114
4.188374999999993520e+01 -7.025433240558183585e-114
4.209749999999993975e+01 -4.711934132852139271e-114
4.231124999999991587e+01 1.087576669039446924e-114
4.252499999999992042e+01 1.088763807430431399e-113
4.273874999999992497e+01 2.412196545445160123e-113
4.295249999999992951e+01 3.855520955191853075e-113
4.316624999999993406e+01 4.987957028239882898e-113
4.337999999999993861e+01 5.177702103229866171e-113
4.359374999999991473e+01 3.675580612385399862e-113
4.380749999999991928e+01 -1.996144853385847279e-114
4.402124999999992383e+01 -6.769889808875318819e-113
4.423499999999992838e+01 -1.563215906930937461e-112
4.444874999999993292e+01 -2.529726802943798487e-112
4.466249999999993747e+01 -3.296597266198212380e-112
4.487624999999991360e+01 -3.461426798183297447e-112
4.508999999999991815e+01 -2.556613094436156270e-112
4.530374999999992269e+01 -1.677712927930292496e-113
4.551749999999992724e+01 3.887662135493127313e-112
4.573124999999993179e+01 9.344361083649202597e-112
4.594499999999993634e+01 1.528617061357097902e-111
4.615874999999991246e+01 2.003495349735424359e-111
4.637249999999991701e+01 2.122836789953139272e-111
4.658624999999992156e+01 1.618008424955723637e-111
4.679999999999992610e+01 2.577559049570032631e-112
4.701374999999993065e+01 -2.050893053466808760e-111
4.722749999999993520e+01 -5.145501591401759395e-111
4.744124999999993975e+01 -8.504457581749469985e-111
4.765499999999991587e+01 -1.119963035666759758e-110
4.786874999999992042e+01 -1.195540268214287848e-110
4.808249999999992497e+01 -9.358009112336375549e-111
4.829624999999992951e+01 -2.234565683227167099e-111
4.850999999999993406e+01 9.824406252138531231e-111
4.872374999999993861e+01 2.588847467464857092e-110
4.893749999999991473e+01 4.321599893084835153e-110
4.915124999999991928e+01 5.710309710726992250e-110
4.936499999999992383e+01 6.128299740199903161e-110
4.957874999999992838e+01 4.905183209416197264e-110
4.979249999999993292e+01 1.515330725394316885e-110
5.000624999999993747e+01 -4.177941837271429184e-110
5.021999999999991360e+01 -1.167208529097528559e-109
5.043374999999991815e+01 -1.964726199908112486e-109
5.064749999999992269e+01 -2.595653146042207996e-109
5.086124999999992724e+01 -2.787480429084088530e-109
5.107499999999993179e+01 -2.265782203412592764e-109
5.128874999999993634e+01 -8.384848533284823085e-110
5.150249999999991246e+01 1.505045360508195862e-109
5.171624999999991701e+01 4.505567650494134638e-109
5.192999999999992156e+01 7.590856953268892397e-109
5.214374999999992610e+01 9.914303017603107746e-109
5.235749999999993065e+01 1.050117488329131916e-108
5.257124999999993520e+01 8.503212679084361914e-109
5.278499999999991132e+01 3.523367972471178335e-109
5.299874999999991587e+01 -4.072671563003558162e-109
5.321249999999992042e+01 -1.297932223268486934e-108
5.342624999999992497e+01 -2.104100793665175406e-108
5.363999999999992951e+01 -2.570750862171739720e-108
5.385374999999993406e+01 -2.485971623994843667e-108
5.406749999999991019e+01 -1.786050025330593445e-108
5.428124999999991473e+01 -6.504677980409687625e-109
5.449499999999991928e+01 4.613972163170046008e-109
5.470874999999992383e+01 8.852159909497315867e-109
5.492249999999992838e+01 -2.254982513690264011e-110
5.513624999999993292e+01 -2.509305975846073472e-108
5.534999999999990905e+01 -5.969750871116211204e-108
5.556374999999991360e+01 -8.560715784608702519e-108
5.577749999999991815e+01 -7.118391143478888269e-108
5.599124999999992269e+01 2.354853570895672278e-108
5.620499999999992724e+01 2.341636799412567137e-107
5.641874999999993179e+01 5.707861415606748918e-107
5.663249999999990791e+01 9.914682587797136075e-107
5.684624999999991246e+01 1.377018542112415490e-106
5.705999999999991701e+01 1.518854486740156697e-106
5.727374999999992156e+01 1.134638841198768764e-106
5.748749999999992610e+01 -7.386849492871999210e-108
5.770124999999993065e+01 -2.312428401940589658e-106
5.791499999999990678e+01 -5.540636869924613881e-106
5.812874999999991132e+01 -9.299094090599793940e-106
5.834249999999991587e+01 -1.256913932804017305e-105
5.855624999999992042e+01 -1.374075975987120366e-105
5.876999999999992497e+01 -1.077673590414260408e-105
5.898374999999992951e+01 -1.650039584827780709e-106
5.919749999999990564e+01 1.491455498323599768e-105
5.941124999999991019e+01 3.845131039998192260e-105
5.962499999999991473e+01 6.569886745737348974e-105
5.983874999999991928e+01 8.980593311430480122e-105
6.005249999999992383e+01 1.002473880575903897e-104
6.026624999999992838e+01 8.395040445362373592e-105
6.047999999999990450e+01 2.804077624591745094e-105
6.069374999999990905e+01 -7.566574931407016856e-105
6.090749999999991360e+01 -2.248103356933667172e-104
6.112124999999991815e+01 -4.003584040558266591e-104
6.133499999999992269e+01 -5.620458297580583677e-104
6.154874999999992724e+01 -6.479065771015206117e-104
6.176249999999993179e+01 -5.806049363201566211e-104
6.197624999999990791e+01 -2.827634414331773620e-104
6.218999999999991246e+01 2.980888947700954580e-104
6.240374999999991701e+01 1.157040015047655463e-103
6.261749999999992156e+01 2.197564500272696091e-103
6.283124999999992610e+01 3.205362409418282421e-103
6.304499999999993065e+01 3.843437212336943192e-103
6.325874999999990678e+01 3.682761864620457850e-103
6.347249999999991132e+01 2.280257690074421442e-103
6.368624999999991587e+01 -6.920081886711379774e-104
6.389999999999992042e+01 -5.276090903982653897e-103
6.411374999999992497e+01 -1.104406963837371967e-102
6.432749999999992951e+01 -1.694925346016043907e-102
6.454124999999990564e+01 -2.127876400884059143e-102
6.475499999999991019e+01 -2.178082002730587118e-102
6.496874999999991473e+01 -1.602922653630327609e-102
6.518249999999991928e+01 -2.051779789880730354e-103
6.539624999999992383e+01 2.081469805820648833e-102
6.560999999999992838e+01 5.096879409140103275e-102
6.582374999999990450e+01 8.371551858772263270e-102
6.603749999999990905e+01 1.108810756981165536e-101
6.625124999999991360e+01 1.212351540943252210e-101
6.646499999999991815e+01 1.020501015204024691e-101
6.667874999999992269e+01 4.197675643083513551e-102
6.689249999999992724e+01 -6.486731348367951591e-102
6.710624999999990337e+01 -2.141106218638032268e-101
6.731999999999990791e+01 -3.866392434495357835e-101
6.753374999999991246e+01 -5.458651594308169562e-101
6.774749999999991701e+01 -6.385023079924876603e-101
6.796124999999992156e+01 -6.005525264704257525e-101
6.817499999999992610e+01 -3.696449173330004180e-101
6.838874999999990223e+01 9.631067477727847624e-102
6.860249999999990678e+01 7.960016205551069222e-101
6.881624999999991132e+01 1.661221465395724914e-100
6.902999999999991587e+01 2.539418566214698135e-100
6.924374999999992042e+01 3.190443198727385848e-100
6.945749999999992497e+01 3.306061921991718152e-100
6.967124999999990109e+01 2.559057634614036366e-100
6.988499999999990564e+01 6.841681269031073449e-101
7.009874999999991019e+01 -2.414490190989632771e-100
7.031249999999991473e+01 -6.545025064023136566e-100
7.052624999999991928e+01 -1.112518150240063647e-99
7.073999999999992383e+01 -1.513224409307962041e-99
7.095374999999989996e+01 -1.714720983523762964e-99
7.116749999999990450e+01 -1.553142412218229620e-99
7.138124999999990905e+01 -8.758008501752793027e-100
7.159499999999991360e+01 4.109876051606702289e-100
7.180874999999991815e+01 2.284597959017335453e-99
7.202249999999992269e+01 4.549843922195207533e-99
7.223624999999989882e+01 6.799600826096571045e-99
7.244999999999990337e+01 8.411944044638501050e-99
7.266374999999990791e+01 8.603988495333168578e-99
7.287749999999991246e+01 6.558022952878290347e-99
7.309124999999991701e+01 1.624331948234868574e-99
7.330499999999992156e+01 -6.413194425213386465e-99
7.351874999999989768e+01 -1.704679342007888664e-98
7.373249999999990223e+01 -2.879486570990021698e-98
7.394624999999990678e+01 -3.908091550496355582e-98
7.415999999999991132e+01 -4.434245717766998258e-98
7.437374999999991587e+01 -4.046300266614152792e-98
7.458749999999992042e+01 -2.358320671839294879e-98
7.480124999999992497e+01 8.724413030857392346e-99
7.501499999999990109e+01 5.603830350143899435e-98
7.522874999999990564e+01 1.136786429115744537e-97
7.544249999999991019e+01 1.716875885577371065e-97
7.565624999999991473e+01 2.146796168066290646e-97
7.586999999999991928e+01 2.230660676146219718e-97
7.608374999999992383e+01 1.760594167881963354e-97
7.629749999999989996e+01 5.660332813625868452e-98
7.651124999999990450e+01 -1.420624165616552762e-97
7.672499999999990905e+01 -4.090855713269038002e-97
7.693874999999991360e+01 -7.094901742171280374e-97
7.715249999999991815e+01 -9.806436161138344798e-97
7.736624999999992269e+01 -1.134240568504970532e-96
7.757999999999989882e+01 -1.066223798669229187e-96
7.779374999999990337e+01 -6.762319347213997803e-97
7.800749999999990791e+01 1.035364756116917633e-97
7.822124999999991246e+01 1.272736211560389633e-96
7.843499999999991701e+01 2.726505647734492696e-96
7.864874999999992156e+01 4.227648075065695669e-96
7.886249999999989768e+01 5.399408566829290757e-96
7.907624999999990223e+01 5.751821184118464418e-96
7.928999999999990678e+01 4.752543525876809972e-96
7.950374999999991132e+01 1.946995600768024505e-96
7.971749999999991587e+01 -2.878054997699442153e-96
7.993124999999992042e+01 -9.508155060910129339e-96
8.014499999999989654e+01 -1.713000216640589775e-95
8.035874999999990109e+01 -2.422965352549540895e-95
8.057249999999990564e+01 -2.862469727092891949e-95
8.078624999999991019e+01 -2.769351190742027894e-95
8.099999999999991473e+01 -1.884542802518624414e-95
8.121374999999991928e+01 -2.340636518292587078e-97
8.142749999999989541e+01 2.834838296842670279e-95
8.164124999999989996e+01 6.454039493944936873e-95
8.185499999999990450e+01 1.026758146004405374e-94
8.206874999999990905e+01 1.335471937475887361e-94
8.228249999999991360e+01 1.449985133578686247e-94
8.249624999999991815e+01 1.236303509123808763e-94
8.270999999999989427e+01 5.775050467111469721e-95
8.292374999999989882e+01 -5.856359910439645365e-95
8.313749999999990337e+01 -2.207976092220429339e-94
8.335124999999990791e+01 -4.096700758307980757e-94
8.356499999999991246e+01 -5.884928635515208290e-94
8.377874999999991701e+01 -7.038383462736964974e-94
8.399249999999989313e+01 -6.910921752348255533e-94
8.420624999999989768e+01 -4.859825532860160856e-94
8.441999999999990223e+01 -4.213134412481103610e-95
8.463374999999990678e+01 6.469426553533921731e-94
8.484749999999991132e+01 1.524983919873719484e-93
8.506124999999991587e+01 2.455085782305300796e-93
8.527499999999989200e+01 3.214175354199131702e-93
8.548874999999989654e+01 3.507949785486047404e-93
8.570249999999990109e+01 3.012999770986985520e-93
8.591624999999990564e+01 1.449002944986416207e-93
8.612999999999991019e+01 -1.322806934051301796e-93
8.634374999999991473e+01 -5.187850760792752235e-93
8.655749999999989086e+01 -9.676496303750565605e-93
8.677124999999989541e+01 -1.390537557738992971e-92
8.698499999999989996e+01 -1.660021835968652300e-92
8.719874999999990450e+01 -1.623662662949653548e-92
8.741249999999990905e+01 -1.132211020696400169e-92
8.762624999999991360e+01 -8.163762573539890475e-94
8.783999999999991815e+01 1.535237866744658209e-92
8.805374999999989427e+01 3.576556950036987914e-92
8.826749999999989882e+01 5.712560197884736630e-92
8.848124999999990337e+01 7.417515344183548535e-92
8.869499999999990791e+01 8.010556545983932247e-92
8.890874999999991246e+01 6.759610157448311258e-92
8.912249999999991701e+01 3.052732165917582334e-92
8.933624999999989313e+01 -3.374924277202684781e-92
8.954999999999989768e+01 -1.219147488120796698e-91
8.976374999999990223e+01 -2.225204636169105353e-91
8.997749999999990678e+01 -3.149158457133768719e-91
9.019124999999991132e+01 -3.701151650606770234e-91
9.040499999999991587e+01 -3.543573287939293257e-91
9.061874999999989200e+01 -2.357676773020600677e-91
9.083249999999989654e+01 6.102429425771463121e-93
9.104624999999990109e+01 3.689758700126926511e-91
9.125999999999990564e+01 8.169504453524028562e-91
9.147374999999991019e+01 1.273145100187097914e-90
9.168749999999991473e+01 1.619665969956744606e-90
9.190124999999989086e+01 1.708590521091846703e-90
9.211499999999989541e+01 1.386552850527513627e-90
9.232874999999989996e+01 5.331395619040210138e-91
9.254249999999990450e+01 -8.903139325675812710e-91
9.275624999999990905e+01 -2.789445646528362230e-90
9.296999999999991360e+01 -4.895649289041441653e-90
9.318374999999988972e+01 -6.751002024853020119e-90
9.339749999999989427e+01 -7.736395721958175673e-90
9.361124999999989882e+01 -7.156792799293923853e-90
9.382499999999990337e+01 -4.389092051870018242e-90
9.403874999999990791e+01 9.159920960713021058e-91
9.425249999999991246e+01 8.605358288182141288e-90
9.446624999999988859e+01 1.781619679868339275e-89
9.467999999999989313e+01 2.685576980432664765e-89
9.489374999999989768e+01 3.324320893397279766e-89
9.510749999999990223e+01 3.398170125456432668e-89
9.532124999999990678e+01 2.610140562651348882e-89
9.553499999999991132e+01 7.460944725043121588e-90
9.574874999999988745e+01 -2.227952773620077826e-89
9.596249999999989200e+01 -6.068875327134068416e-89
9.617624999999989654e+01 -1.018575612917228513e-88
9.638999999999990109e+01 -1.362701158797494231e-88
9.660374999999990564e+01 -1.515677705504540592e-88
9.681749999999991019e+01 -1.344353926575233461e-88
9.703124999999988631e+01 -7.365341313378958109e-89
9.724499999999989086e+01 3.592913551383471600e-89
9.745874999999989541e+01 1.891069797561783305e-88
9.767249999999989996e+01 3.666974781503554008e-88
9.788624999999990450e+01 5.338618927894439757e-88
9.809999999999990905e+01 6.417434839948288431e-88
9.831374999999988518e+01 6.335793996406872311e-88
9.852749999999988972e+01 4.558167138019737872e-88
9.874124999999989427e+01 7.369789679911505676e-89
9.895499999999989882e+01 -5.106499104657269894e-88
9.916874999999990337e+01 -1.241180598504697757e-87
9.938249999999990791e+01 -1.996921213385570479e-87
9.959624999999988404e+01 -2.592736974525198126e-87
9.980999999999988859e+01 -2.797248020503648323e-87
1.000237499999998931e+02 -2.371323970141106648e-87
1.002374999999998977e+02 -1.126810473505802677e-87
1.004512499999999022e+02 1.000315482662150478e-87
1.006649999999999068e+02 3.874669035682300323e-87
1.008787499999998829e+02 7.102706054094081654e-87
1.010924999999998875e+02 1.001358051995940849e-86
1.013062499999998920e+02 1.170318030578035096e-86
1.015199999999998965e+02 1.115947315252145759e-86
1.017337499999999011e+02 7.474589571084517140e-87
1.019474999999999056e+02 1.290263227451070746e-88
1.021612499999999102e+02 -1.069221550859522681e-86
1.023749999999998863e+02 -2.381874676520598548e-86
1.025887499999998909e+02 -3.693842192242672315e-86
1.028024999999998954e+02 -4.666386316209016315e-86
1.030162499999999000e+02 -4.890804878525224326e-86
1.032299999999999045e+02 -3.961493085775008664e-86
1.034437499999999091e+02 -1.582035258772776826e-86
1.036574999999998852e+02 2.307835789677735821e-86
1.038712499999998897e+02 7.407577478625409866e-86
1.040849999999998943e+02 1.296671094605423683e-85
1.042987499999998988e+02 1.777056909480201525e-85
1.045124999999999034e+02 2.023899630260636711e-85
1.047262499999999079e+02 1.866440243204844361e-85
1.049399999999998840e+02 1.159174338641529001e-85
1.051537499999998886e+02 -1.692382959161068536e-86
1.053674999999998931e+02 -2.063741003363749457e-85
1.055812499999998977e+02 -4.299228558809213028e-85
1.057949999999999022e+02 -6.460595624343568208e-85
1.060087499999999068e+02 -7.962390944762043176e-85
1.062224999999998829e+02 -8.121036189144246604e-85
1.064362499999998875e+02 -6.284955414270717812e-85
1.066499999999998920e+02 -2.015528493155471190e-85
1.068637499999998965e+02 4.704452634289194886e-85
1.070774999999999011e+02 1.327572721454196089e-84
1.072912499999999056e+02 2.235683101607151861e-84
1.075049999999998818e+02 2.987105790302850780e-84
1.077187499999998863e+02 3.320406085596131430e-84
1.079324999999998909e+02 2.962733123284019832e-84
1.081462499999998954e+02 1.694089123466128301e-84
1.083599999999999000e+02 -5.730431700171931751e-85
1.085737499999999045e+02 -3.712134132667759816e-84
1.087874999999998806e+02 -7.319010930760573915e-84
1.090012499999998852e+02 -1.069044003246505634e-83
1.092149999999998897e+02 -1.286913296003251954e-83
1.094287499999998943e+02 -1.277328550923637099e-83
1.096424999999998988e+02 -9.415283525722402151e-84
1.098562499999999034e+02 -2.193572586066848415e-84
1.100699999999998795e+02 8.784009474817208856e-84
1.102837499999998840e+02 2.241358275892590420e-83
1.104974999999998886e+02 3.643418076375368570e-83
1.107112499999998931e+02 4.748854762063317847e-83
1.109249999999998977e+02 5.148807161704852359e-83
1.111387499999999022e+02 4.432315370701242850e-83
1.113524999999998784e+02 2.289081526024623901e-83
1.115662499999998829e+02 -1.368145699850931220e-83
1.117799999999998875e+02 -6.283934928753335559e-83
1.119937499999998920e+02 -1.177474069548536495e-82
1.122074999999998965e+02 -1.671420247341945649e-82
1.124212499999999011e+02 -1.962371449736356825e-82
1.126349999999998772e+02 -1.889119962658908007e-82
1.128487499999998818e+02 -1.311855507415490779e-82
1.130624999999998863e+02 -1.565902413031695464e-83
1.132762499999998909e+02 1.537750476288174817e-82
1.134899999999998954e+02 3.580294715649962032e-82
1.137037499999999000e+02 5.610568149901026306e-82
1.139174999999998761e+02 7.115883135460968037e-82
1.141312499999998806e+02 7.494479744856163437e-82
1.143449999999998852e+02 6.168184326889112819e-82
1.145587499999998897e+02 2.737475710097144161e-82
1.147724999999998943e+02 -2.841894687435479579e-82
1.149862499999998988e+02 -1.009594470619337712e-81
1.151999999999998749e+02 -1.792999117071126808e-81
1.154137499999998795e+02 -2.463823777933521418e-81
1.156274999999998840e+02 -2.807074047568544445e-81
1.158412499999998886e+02 -2.598271936741228009e-81
1.160549999999998931e+02 -1.655588337248771741e-81
1.162687499999998977e+02 9.662505492772759864e-83
1.164824999999999022e+02 2.564032944135931616e-81
1.166962499999998784e+02 5.434147132170268588e-81
1.169099999999998829e+02 8.162480407369358164e-81
1.171237499999998875e+02 1.001096401131730386e-80
1.173374999999998920e+02 1.015098338807429936e-80
1.175512499999998965e+02 7.832337869049107355e-81
1.177649999999999011e+02 2.603408341952919676e-81
1.179787499999998772e+02 -5.451222705377537111e-81
1.181924999999998818e+02 -1.550797415888912183e-80
1.184062499999998863e+02 -2.590167802102372010e-80
1.186199999999998909e+02 -3.419071734546456162e-80
1.188337499999998954e+02 -3.744343744076485976e-80
1.190474999999999000e+02 -3.276611082702034012e-80
1.192612499999998761e+02 -1.804052176399183323e-80
1.194749999999998806e+02 7.226648061912998895e-81
1.196887499999998852e+02 4.110907986773656886e-80
1.199024999999998897e+02 7.874238998567759525e-80
1.201162499999998943e+02 1.123260194567733770e-79
1.203299999999998988e+02 1.318596730047640920e-79
1.205437499999998749e+02 1.267326136321459322e-79
1.207574999999998795e+02 8.811889352766489170e-80
1.209712499999998840e+02 1.191011340074442001e-80
1.211849999999998886e+02 -9.832784822449397929e-80
1.213987499999998931e+02 -2.291045202783072255e-79
1.216124999999998977e+02 -3.563136107504628872e-79
1.218262499999998738e+02 -4.469117207609251591e-79
1.220399999999998784e+02 -4.635152167837149534e-79
1.222537499999998829e+02 -3.719557166249700754e-79
1.224674999999998875e+02 -1.511093053726688960e-79
1.226812499999998920e+02 1.965347008061249943e-79
1.228949999999998965e+02 6.359098176387768109e-79
1.231087499999998727e+02 1.094909044727631320e-78
1.233224999999998772e+02 1.467366458820244400e-78
1.235362499999998818e+02 1.625757252734938887e-78
1.237499999999998863e+02 1.444375895760463933e-78
1.239637499999998909e+02 8.314337899065994659e-79
1.241774999999998954e+02 -2.343483863424297087e-79
1.243912499999998715e+02 -1.669994126430353388e-78
1.246049999999998761e+02 -3.266963459941474708e-78
1.248187499999998806e+02 -4.692633207206797211e-78
1.250324999999998852e+02 -5.523379105385004697e-78
1.252462499999998897e+02 -5.313709523834973890e-78
1.254599999999998943e+02 -3.698662690239938306e-78