2.024999999999579359e-01 9.701527918929590772e-131
4.162499999999482725e-01 -3.586456356009343354e-130
6.299999999999528200e-01 -1.191819806738734515e-129
8.437499999999573674e-01 -2.444922086055329349e-129
1.057499999999947704e+00 -3.998667081382119090e-129
1.271249999999952252e+00 -5.433230457036229707e-129
1.484999999999956799e+00 -5.873011956794053079e-129
1.698749999999947136e+00 -3.876045948204348359e-129
1.912499999999951683e+00 2.518359281600369136e-129
2.126249999999956231e+00 1.541283913797368932e-128
2.339999999999946567e+00 3.613797731018487569e-128
2.553749999999951115e+00 6.362110764496839960e-128
2.767499999999955662e+00 9.201659316542925003e-128
2.981249999999945999e+00 1.079404921319163015e-127
3.194999999999950546e+00 8.827791007612860626e-128
3.408749999999955094e+00 4.004944117657313806e-130
3.622499999999945430e+00 -1.924245511938702304e-127
3.836249999999949978e+00 -5.170453009283701052e-127
4.049999999999954525e+00 -9.649187312943484500e-127
4.263749999999944862e+00 -1.454675820055608232e-126
4.477499999999949409e+00 -1.788060541038634910e-126
4.691249999999953957e+00 -1.614184997509526569e-126
4.904999999999944293e+00 -4.301460033826182972e-127
5.118749999999948841e+00 2.340192073863565955e-126
5.332499999999953388e+00 7.139399971731562459e-126
5.546249999999943725e+00 1.390018291082202424e-125
5.759999999999948272e+00 2.149720079263025188e-125
5.973749999999952820e+00 2.710923141994406570e-125
6.187499999999943157e+00 2.571194302949463189e-125
6.401249999999947704e+00 1.010259535766788346e-125
6.614999999999952252e+00 -2.796184934286822130e-125
6.828749999999942588e+00 -9.484437751757934714e-125
7.042499999999947136e+00 -1.898080162562350782e-124
7.256249999999951683e+00 -2.975548627769985975e-124
7.469999999999942020e+00 -3.797570821230865982e-124
7.683749999999946567e+00 -3.686502183620200623e-124
7.897499999999951115e+00 -1.680625802938462473e-124
8.111249999999941451e+00 3.306141014086773497e-124
8.324999999999945999e+00 1.209280441339352747e-123
8.538749999999950546e+00 2.455103018988891051e-123
8.752499999999940883e+00 3.865870287172132001e-123
8.966249999999945430e+00 4.946258645466182137e-123
9.179999999999949978e+00 4.835302884728446636e-123
9.393749999999940314e+00 2.332426628030550842e-123
9.607499999999944862e+00 -3.887855092143929303e-123
9.821249999999949409e+00 -1.477936728897226644e-122
1.003499999999993975e+01 -3.009089038881691512e-122
1.024874999999994429e+01 -4.724449789148336392e-122
1.046249999999994884e+01 -6.015992028495899598e-122
1.067624999999993918e+01 -5.852235663634296214e-122
1.088999999999994373e+01 -2.828505592131412352e-122
1.110374999999994827e+01 4.558504213751650346e-122
1.131749999999993861e+01 1.731490101227809782e-121
1.153124999999994316e+01 3.498855114848414786e-121
1.174499999999994770e+01 5.442485612621860322e-121
1.195874999999993804e+01 6.853345710149832578e-121
1.217249999999994259e+01 6.564402900336569052e-121
1.238624999999994714e+01 3.032399398843876943e-121
1.259999999999993747e+01 -5.328956323927730825e-121
1.281374999999994202e+01 -1.947214826897455425e-120
1.302749999999994657e+01 -3.867093182831086486e-120
1.324124999999995111e+01 -5.922703854081402011e-120
1.345499999999994145e+01 -7.327577663316544141e-120
1.366874999999994600e+01 -6.832445919309615522e-120
1.388249999999995055e+01 -2.842898559643366768e-120
1.409624999999994088e+01 6.196760384752944081e-120
1.430999999999994543e+01 2.107428276489961864e-119
1.452374999999994998e+01 4.073635364978457747e-119
1.473749999999994031e+01 6.102850770018376814e-119
1.495124999999994486e+01 7.363497592277965880e-119
1.516499999999994941e+01 6.587573207314173822e-119
1.537874999999993975e+01 2.224504612433729808e-119
1.559249999999994429e+01 -7.138191379811544331e-119
1.580624999999994884e+01 -2.202790753649076786e-118
1.601999999999993918e+01 -4.104397023364947460e-118
1.623374999999994373e+01 -5.970759217576570444e-118
1.644749999999994827e+01 -6.961292848689213354e-118
1.666124999999993861e+01 -5.852536321765985182e-118
1.687499999999994316e+01 -1.224145065557616222e-118
1.708874999999994770e+01 8.101353234769198457e-118
1.730249999999993804e+01 2.232886551900459180e-117
1.751624999999994259e+01 3.972937819830667554e-117
1.772999999999994714e+01 5.565862654474593953e-117
1.794374999999993747e+01 6.196512738556190731e-117
1.815749999999994202e+01 4.739158927112140335e-117
1.837124999999994657e+01 -3.223686813947366906e-119
1.858499999999993690e+01 -9.004081274733038902e-117
1.879874999999994145e+01 -2.204111266279291867e-116
1.901249999999994600e+01 -3.714387915971926080e-116
1.922624999999993634e+01 -4.966867609315700719e-116
1.943999999999994088e+01 -5.200163766804768495e-116
1.965374999999994543e+01 -3.422568777980919167e-116
1.986749999999993577e+01 1.363829185747395225e-116
2.008124999999994031e+01 9.740580000092238969e-116
2.029499999999994486e+01 2.126051606345794096e-115
2.050874999999993520e+01 3.374340389409786848e-115
2.072249999999993975e+01 4.270181283633784922e-115
2.093624999999994429e+01 4.125616753744762571e-115
2.114999999999993463e+01 2.099906467986704350e-115
2.136374999999993918e+01 -2.573957221777714291e-115
2.157749999999994373e+01 -1.019836479339005643e-114
2.179124999999993406e+01 -2.008071979882000350e-114
2.200499999999993861e+01 -2.996923178884923877e-114
2.221874999999994316e+01 -3.566556538710180374e-114
2.243249999999993349e+01 -3.113053125640399820e-114
2.264624999999993804e+01 -9.460678192470381037e-115
2.285999999999994259e+01 3.493177926626256910e-114
2.307374999999993292e+01 1.028274651770817221e-113
2.328749999999993747e+01 1.857485539733538612e-113
2.350124999999994202e+01 2.616014577315140433e-113
2.371499999999993236e+01 2.923213872751764829e-113
2.392874999999993690e+01 2.262043121102303641e-113
2.414249999999994145e+01 7.924935221085353726e-115
2.435624999999993179e+01 -4.014311391222850915e-113
2.456999999999993634e+01 -9.941907025311729288e-113
2.478374999999994088e+01 -1.679731537141805377e-112
2.499749999999993122e+01 -2.251766856720708710e-112
2.521124999999993577e+01 -2.375822324667684588e-112
2.542499999999994031e+01 -1.618962308604869807e-112
2.563874999999993065e+01 4.551200804707966817e-113
2.585249999999993520e+01 4.110023764444985309e-112
2.606624999999993975e+01 9.183957716081861483e-112
2.627999999999994429e+01 1.479953002637360279e-111
2.649374999999993463e+01 1.912243230223763773e-111
2.670749999999993918e+01 1.930672609556645437e-111
2.692124999999994373e+01 1.180229157922415018e-111
2.713499999999993406e+01 -6.801563227583528243e-112
2.734874999999993861e+01 -3.829448821461265252e-111
2.756249999999994316e+01 -8.079452144445094516e-111
2.777624999999993349e+01 -1.264788446031969657e-110
2.798999999999993804e+01 -1.598150873023975210e-110
2.820374999999994259e+01 -1.573940765786139579e-110
2.841749999999993292e+01 -9.072011925939207203e-111
2.863124999999993747e+01 6.675594555049218589e-111
2.884499999999994202e+01 3.277021686367431397e-110
2.905874999999993236e+01 6.747869369974991565e-110
2.927249999999993690e+01 1.043276611790491785e-109
2.948624999999994145e+01 1.308029128787056993e-109
2.969999999999993179e+01 1.283340182774474815e-109
2.991374999999993634e+01 7.458117009184830259e-110
3.012749999999994088e+01 -5.104101833552009457e-110
3.034124999999993122e+01 -2.581676872309060628e-109
3.055499999999993577e+01 -5.332291783125143254e-109
3.076874999999994031e+01 -8.263731353026550395e-109
3.098249999999993065e+01 -1.041823569319197772e-108
3.119624999999993520e+01 -1.037915273241545767e-108
3.140999999999993975e+01 -6.442034109090244339e-109
3.162374999999993008e+01 2.976500377212113940e-109
3.183749999999993463e+01 1.866202997640100264e-108
3.205124999999993918e+01 3.970324129601042977e-108
3.226499999999992951e+01 6.253136114853125335e-108
3.247874999999993406e+01 8.020151383817404105e-108
3.269249999999993861e+01 8.235735265255518796e-108
3.290624999999992895e+01 5.640052798279873752e-108
3.311999999999993349e+01 -9.661946636386928750e-109
3.333374999999993804e+01 -1.224727030223639824e-107
3.354749999999992838e+01 -2.769775818599308281e-107
3.376124999999993292e+01 -4.495581360719580597e-107
3.397499999999993747e+01 -5.926907417989532948e-107
3.418874999999992781e+01 -6.341200745878867241e-107
3.440249999999993236e+01 -4.840983357867916690e-107
3.461624999999993690e+01 -5.396559035022669644e-108
3.482999999999992724e+01 7.122639994159835682e-107
3.504374999999993179e+01 1.794967140715940790e-106
3.525749999999993634e+01 3.051364765159266741e-106
3.547124999999992667e+01 4.176413925874902783e-106
3.568499999999993122e+01 4.691426173441372999e-106
3.589874999999993577e+01 3.983687036776647058e-106
3.611249999999992610e+01 1.419196032636816500e-106
3.632624999999993065e+01 -3.458758900460729499e-106
3.653999999999993520e+01 -1.065255955803503811e-105
3.675374999999992554e+01 -1.939334617782057327e-105
3.696749999999993008e+01 -2.786229183773331851e-105
3.718124999999993463e+01 -3.306821441702297880e-105
3.739499999999992497e+01 -3.102762166610740882e-105
3.760874999999992951e+01 -1.739189686832174759e-105
3.782249999999993406e+01 1.138316922928754024e-105
3.803624999999993861e+01 5.634321519454482113e-105
3.824999999999994316e+01 1.140152233180148872e-104
3.846374999999991928e+01 1.744950327145500219e-104
3.867749999999992383e+01 2.203240730719531185e-104
3.889124999999992838e+01 2.270279590710119651e-104
3.910499999999993292e+01 1.662269929762862734e-104
3.931874999999993747e+01 1.200391841414298496e-105
3.953249999999994202e+01 -2.493664633350872608e-104
3.974624999999991815e+01 -6.071992261004978588e-104
3.995999999999992269e+01 -1.013885520964235731e-103
4.017374999999992724e+01 -1.375741769395242230e-103
4.038749999999993179e+01 -1.552136584760780892e-103
4.060124999999993634e+01 -1.368349156922526204e-103
4.081499999999994088e+01 -6.468410201217613221e-104
4.102874999999991701e+01 7.410141284158631790e-104
4.124249999999992156e+01 2.805529947573911493e-103
4.145624999999992610e+01 5.361329345624785963e-103
4.166999999999993065e+01 7.959868293306614486e-103
4.188374999999993520e+01 9.857593159301108938e-103
4.209749999999993975e+01 1.005054180113298274e-102
4.231124999999991587e+01 7.405469737005006155e-103
4.252499999999992042e+01 9.079321178446134949e-104
4.273874999999992497e+01 -9.973204755738177605e-103
4.295249999999992951e+01 -2.483822963947145103e-102
4.316624999999993406e+01 -4.190198561965155990e-102
4.337999999999993861e+01 -5.765431354268338660e-102
4.359374999999991473e+01 -6.679712469034577950e-102
4.380749999999991928e+01 -6.263837675738909855e-102
4.402124999999992383e+01 -3.810477038839172685e-102
4.423499999999992838e+01 1.253637409232801882e-102
4.444874999999993292e+01 9.129088533738478296e-102
4.466249999999993747e+01 1.936324362545453212e-101
4.487624999999991360e+01 3.057751845082721647e-101
4.508999999999991815e+01 4.027906885269015871e-101
4.530374999999992269e+01 4.485659887791361115e-101
4.551749999999992724e+01 3.987131268525268256e-101
4.573124999999993179e+01 2.074414606398694808e-101
4.594499999999993634e+01 -1.610070404626154666e-101
4.615874999999991246e+01 -7.165678836649197167e-101
4.637249999999991701e+01 -1.424665677222363914e-100
4.658624999999992156e+01 -2.187732317935161747e-100
4.679999999999992610e+01 -2.831925855915353050e-100
4.701374999999993065e+01 -3.105847396524074385e-100
4.722749999999993520e+01 -2.699248654652417093e-100
4.744124999999993975e+01 -1.289590365163972155e-100
4.765499999999991587e+01 1.378013002917872606e-100
4.786874999999992042e+01 5.377318589041736508e-100
4.808249999999992497e+01 1.046290722978399992e-99
4.829624999999992951e+01 1.592937308486945636e-99
4.850999999999993406e+01 2.050515568202188256e-99
4.872374999999993861e+01 2.233418869912325991e-99
4.893749999999991473e+01 1.910998748976699611e-99
4.915124999999991928e+01 8.427436414507517568e-100
4.936499999999992383e+01 -1.160056906381383628e-99
4.957874999999992838e+01 -4.145928772689755487e-99
4.979249999999993292e+01 -7.915579054996138162e-99
5.000624999999993747e+01 -1.191334837230386267e-98
5.021999999999991360e+01 -1.514904038324368377e-98
5.043374999999991815e+01 -1.619394768391277536e-98
5.064749999999992269e+01 -1.330283187899673486e-98
5.086124999999992724e+01 -4.711291717584602487e-99
5.107499999999993179e+01 1.086107226728556613e-98
5.128874999999993634e+01 3.351270565401052348e-98
5.150249999999991246e+01 6.134478450561137143e-98
5.171624999999991701e+01 8.969392403122762403e-98
5.192999999999992156e+01 1.106752375346930646e-97
5.214374999999992610e+01 1.133800330410866818e-97
5.235749999999993065e+01 8.510395060631423379e-98
5.257124999999993520e+01 1.391886320388940395e-98
5.278499999999991132e+01 -1.072979336179513768e-97
5.299874999999991587e+01 -2.756301647682269470e-97
5.321249999999992042e+01 -4.724675816932996117e-97
5.342624999999992497e+01 -6.588502328490408150e-97
5.363999999999992951e+01 -7.738527659192967536e-97
5.385374999999993406e+01 -7.384506527260405573e-97
5.406749999999991019e+01 -4.672290305089938722e-97
5.428124999999991473e+01 1.105525099366219950e-97
5.449499999999991928e+01 1.020869225133841652e-96
5.470874999999992383e+01 2.209055094542091590e-96
5.492249999999992838e+01 3.505150132122723965e-96
5.513624999999993292e+01 4.601505824947989530e-96
5.534999999999990905e+01 5.056914861448358377e-96
5.556374999999991360e+01 4.342506074340023456e-96
5.577749999999991815e+01 1.941681426493855977e-96
5.599124999999992269e+01 -2.492059467295183437e-96
5.620499999999992724e+01 -8.930281679119206256e-96
5.641874999999993179e+01 -1.674908787541718549e-95
5.663249999999990791e+01 -2.454780268380710836e-95
5.684624999999991246e+01 -3.008338578892467265e-95
5.705999999999991701e+01 -3.040920494544563703e-95
5.727374999999992156e+01 -2.230020094133632698e-95
5.748749999999992610e+01 -3.012023341748379998e-96
5.770124999999993065e+01 2.864693062624651432e-95
5.791499999999990678e+01 7.105452662488815960e-95
5.812874999999991132e+01 1.185761195873876521e-94
5.834249999999991587e+01 1.608079895914353957e-94
5.855624999999992042e+01 1.827371536701661797e-94
5.876999999999992497e+01 1.663041846019231220e-94
5.898374999999992951e+01 9.373604014556207011e-95
5.919749999999990564e+01 -4.727691332740593558e-95
5.941124999999991019e+01 -2.569663126175237064e-94
5.962499999999991473e+01 -5.164786218477205285e-94
5.983874999999991928e+01 -7.822239332039305680e-94
6.005249999999992383e+01 -9.839358768955413065e-94
6.026624999999992838e+01 -1.029082319538917309e-93
6.047999999999990450e+01 -8.159701928948138407e-94
6.069374999999990905e+01 -2.567719866717883103e-94
6.090749999999991360e+01 6.903743598994927147e-94
6.112124999999991815e+01 1.984026280871166482e-93
6.133499999999992269e+01 3.464258647984268717e-93
6.154874999999992724e+01 4.830526233130641313e-93
6.176249999999993179e+01 5.645831850116727292e-93
6.197624999999990791e+01 5.380514131775200396e-93
6.218999999999991246e+01 3.505407455425856628e-93
6.240374999999991701e+01 -3.640137659303122027e-94
6.261749999999992156e+01 -6.283855375074029597e-93
6.283124999999992610e+01 -1.378658759390839626e-92
6.304499999999993065e+01 -2.172086226686166810e-92
6.325874999999990678e+01 -2.818837402655378873e-92
6.347249999999991132e+01 -3.064699444725084119e-92
6.368624999999991587e+01 -2.624199628002381236e-92
6.389999999999992042e+01 -1.239942026411943703e-92
6.411374999999992497e+01 1.233581379491630669e-92
6.432749999999992951e+01 4.730843392838657156e-92
6.454124999999990564e+01 8.878824359922237546e-92
6.475499999999991019e+01 1.293010361233071761e-91
6.496874999999991473e+01 1.575880777351177553e-91
6.518249999999991928e+01 1.595388151964301934e-91
6.539624999999992383e+01 1.203696716268367377e-91
6.560999999999992838e+01 2.814189489021526740e-92
6.582374999999990450e+01 -1.215864655272726006e-91
6.603749999999990905e+01 -3.205802522743216808e-91
6.625124999999991360e+01 -5.432794802589022770e-91
6.646499999999991815e+01 -7.441670411156938557e-91
6.667874999999992269e+01 -8.588993705188598738e-91
6.689249999999992724e+01 -8.109066067235171276e-91
6.710624999999990337e+01 -5.246733192009553028e-91
6.731999999999990791e+01 5.415143847490821504e-92
6.753374999999991246e+01 9.333250623116629590e-91
6.774749999999991701e+01 2.046926830732835240e-90
6.796124999999992156e+01 3.232650139368143979e-90
6.817499999999992610e+01 4.221610296581299620e-90
6.838874999999990223e+01 4.649985993688032525e-90
6.860249999999990678e+01 4.101277437660500199e-90
6.881624999999991132e+01 2.184932323645306301e-90
6.902999999999991587e+01 -1.349020147048811531e-90
6.924374999999992042e+01 -6.469009453624821148e-90
6.945749999999992497e+01 -1.271626029333437420e-89
6.967124999999990109e+01 -1.908903539764887012e-89
6.988499999999990564e+01 -2.400273885962214111e-89
7.009874999999991019e+01 -2.537777185120702376e-89
7.031249999999991473e+01 -2.090307325188146873e-89
7.052624999999991928e+01 -8.504924942641197150e-90
7.073999999999992383e+01 1.298551480602966910e-89
7.095374999999989996e+01 4.302711580196317250e-89
7.116749999999990450e+01 7.855686985564796128e-89
7.138124999999990905e+01 1.133770494942316297e-88
7.159499999999991360e+01 1.380117440700037676e-88
7.180874999999991815e+01 1.403340779269902055e-88
7.202249999999992269e+01 1.072358080252346773e-88
7.223624999999989882e+01 2.749379169138368462e-89
7.244999999999990337e+01 -1.042366515069828952e-88
7.266374999999990791e+01 -2.827060329133287132e-88
7.287749999999991246e+01 -4.874573184171229595e-88
7.309124999999991701e+01 -6.795837752092638436e-88
7.330499999999992156e+01 -8.014916512787830488e-88
7.351874999999989768e+01 -7.814438339157817726e-88
7.373249999999990223e+01 -5.444146063805394082e-88
7.394624999999990678e+01 -2.999181459538317741e-89
7.415999999999991132e+01 7.833837798089263537e-88
7.437374999999991587e+01 1.850642081067442482e-87
7.458749999999992042e+01 3.034115698161840557e-87
7.480124999999992497e+01 4.087307388983947679e-87
7.501499999999990109e+01 4.658265188428870898e-87
7.522874999999990564e+01 4.322857667352612856e-87
7.544249999999991019e+01 2.656146450002707486e-87
7.565624999999991473e+01 -6.554387977808857926e-88
7.586999999999991928e+01 -5.667775681362995971e-87
7.608374999999992383e+01 -1.201814489466050557e-86
7.629749999999989996e+01 -1.878434874346456383e-86
7.651124999999990450e+01 -2.441275886748569703e-86
7.672499999999990905e+01 -2.677351061054901455e-86
7.693874999999991360e+01 -2.340003760207193771e-86
7.715249999999991815e+01 -1.195320229633091033e-86
7.736624999999992269e+01 9.087012000450350875e-87
7.757999999999989882e+01 3.955837588541102163e-86
7.779374999999990337e+01 7.671526994734530779e-86
7.800749999999990791e+01 1.145078762802511187e-85
7.822124999999991246e+01 1.433341534656905541e-85
7.843499999999991701e+01 1.505943816929577473e-85
7.864874999999992156e+01 1.223481861335748774e-85
7.886249999999989768e+01 4.624751104261221112e-86
7.907624999999990223e+01 -8.432368498695979247e-86
7.928999999999990678e+01 -2.653306848363619675e-85
7.950374999999991132e+01 -4.772603249979788780e-85
7.971749999999991587e+01 -6.817092938271625389e-85
7.993124999999992042e+01 -8.210664638419446092e-85
8.014499999999989654e+01 -8.230694036477788782e-85
8.035874999999990109e+01 -6.117024086062886679e-85
8.057249999999990564e+01 -1.250329322638577045e-85
8.078624999999991019e+01 6.609170753803899753e-85
8.099999999999991473e+01 1.705243357629449854e-84
8.121374999999991928e+01 2.877566116160395619e-84
8.142749999999989541e+01 3.943459598628557185e-84
8.164124999999989996e+01 4.569109320022749673e-84
8.185499999999990450e+01 4.354322501896386872e-84
8.206874999999990905e+01 2.900511896633953794e-84
8.228249999999991360e+01 -8.529420650193170046e-86
8.249624999999991815e+01 -4.658164073024821632e-84
8.270999999999989427e+01 -1.049389819604926855e-83
8.292374999999989882e+01 -1.677031660440274342e-83
8.313749999999990337e+01 -2.211383895609296980e-83
8.335124999999990791e+01 -2.465962337338534256e-83
8.356499999999991246e+01 -2.226964321711688495e-83
8.377874999999991701e+01 -1.293572058694964159e-83
8.399249999999989313e+01 4.638839315647137260e-84
8.420624999999989768e+01 3.033448628354334723e-83
8.441999999999990223e+01 6.190340673419038647e-83
8.463374999999990678e+01 9.442813861211677783e-83
8.484749999999991132e+01 1.201773095001437346e-82
8.506124999999991587e+01 1.291008550498299412e-82
8.527499999999989200e+01 1.101693813454269016e-82
8.548874999999989654e+01 5.365328968527735479e-83
8.570249999999990109e+01 -4.575179315904382638e-83
8.591624999999990564e+01 -1.853085897973668887e-82
8.612999999999991019e+01 -3.507913148092378830e-82
8.634374999999991473e+01 -5.141624011956238469e-82
8.655749999999989086e+01 -6.335284742316418089e-82
8.677124999999989541e+01 -6.565440439224787806e-82
8.698499999999989996e+01 -5.281572561526733039e-82
8.719874999999990450e+01 -2.029559671542183792e-82
8.741249999999990905e+01 3.386472034389181702e-82
8.762624999999991360e+01 1.072491601683817885e-81
8.783999999999991815e+01 1.914591740496145925e-81
8.805374999999989427e+01 2.711821994353978737e-81
8.826749999999989882e+01 3.245047512908392736e-81
8.848124999999990337e+01 3.250127060343631356e-81
8.869499999999990791e+01 2.460483009352413222e-81
8.890874999999991246e+01 6.714366371962258802e-82
8.912249999999991701e+01 -2.178759303055532634e-81
8.933624999999989313e+01 -5.922860885743305878e-81
8.954999999999989768e+01 -1.009218110326819501e-80
8.976374999999990223e+01 -1.388217282580361686e-80
8.997749999999990678e+01 -1.618310222703788368e-80
9.019124999999991132e+01 -1.570015537735847756e-80
9.040499999999991587e+01 -1.117734590805036860e-80
9.061874999999989200e+01 -1.721285060151486937e-81
9.083249999999989654e+01 1.280531368283798666e-80
9.104624999999990109e+01 3.138201026135275130e-80
9.125999999999990564e+01 5.151418551432877736e-80
9.147374999999991019e+01 6.911932702458796097e-80
9.168749999999991473e+01 7.874108320433674101e-80
9.190124999999989086e+01 7.419695583694248186e-80
9.211499999999989541e+01 4.971168957434659516e-80
9.232874999999989996e+01 1.496484896941183901e-81
9.254249999999990450e+01 -7.039181663573345535e-80
9.275624999999990905e+01 -1.602232711323641485e-79
9.296999999999991360e+01 -2.552508948518332394e-79
9.318374999999988972e+01 -3.354001708451981915e-79
9.339749999999989427e+01 -3.745549045766066141e-79
9.361124999999989882e+01 -3.438872166185683665e-79
9.382499999999990337e+01 -2.174038130702337173e-79
9.403874999999990791e+01 2.056478112728583192e-80
9.425249999999991246e+01 3.667938056292581037e-79
9.446624999999988859e+01 7.910327503187235014e-79
9.467999999999989313e+01 1.230437426509900145e-78
9.489374999999989768e+01 1.589073367094119162e-78
9.510749999999990223e+01 1.744967089567247935e-78
9.532124999999990678e+01 1.566552770692865198e-78
9.553499999999991132e+01 9.390083548686307352e-79
9.574874999999988745e+01 -2.011172061488063260e-79
9.596249999999989200e+01 -1.827262134626765641e-78
9.617624999999989654e+01 -3.787376064775432765e-78
9.638999999999990109e+01 -5.781343991417623808e-78
9.660374999999990564e+01 -7.362488765079476150e-78
9.681749999999991019e+01 -7.973827375201127109e-78
9.703124999999988631e+01 -7.026537282529249627e-78
9.724499999999989086e+01 -4.021674777791937486e-78
9.745874999999989541e+01 1.293374692108804459e-78
9.767249999999989996e+01 8.754143329738875959e-78
9.788624999999990450e+01 1.762700472214218763e-77
9.809999999999990905e+01 2.651932793585281547e-77
9.831374999999988518e+01 3.340067915569273879e-77
9.852749999999988972e+01 3.578024843680069889e-77
9.874124999999989427e+01 3.106999704521185769e-77
9.895499999999989882e+01 1.713353841012196278e-77
9.916874999999990337e+01 -7.021875852054672998e-78
9.938249999999990791e+01 -4.050473969332929353e-77
9.959624999999988404e+01 -7.989775104546278958e-77
9.980999999999988859e+01 -1.189060685074640157e-76
1.000237499999998931e+02 -1.485045294747434550e-76
1.002374999999998977e+02 -1.577717892046460078e-76
1.004512499999999022e+02 -1.355258791620294531e-76
1.006649999999999068e+02 -7.274375946657325364e-77
1.008787499999998829e+02 3.443852067085575383e-77
1.010924999999998875e+02 1.815697555700089870e-76
1.013062499999998920e+02 3.532180869104879837e-76
1.015199999999998965e+02 5.216145976303396297e-76
1.017337499999999011e+02 6.474860952535264208e-76
1.019474999999999056e+02 6.838463021429558330e-76
1.021612499999999102e+02 5.831815773335190113e-76
1.023749999999998863e+02 3.078910777313767817e-76
1.025887499999998909e+02 -1.569529787485946627e-76
1.028024999999998954e+02 -7.903863377068060516e-76
1.030162499999999000e+02 -1.524644374258241952e-75
1.032299999999999045e+02 -2.240009805175047575e-75
1.034437499999999091e+02 -2.769054213708235408e-75
1.036574999999998852e+02 -2.913369263554945442e-75
1.038712499999998897e+02 -2.474414985373963575e-75
1.040849999999998943e+02 -1.297651391652456836e-75
1.042987499999998988e+02 6.742052484132259749e-76
1.045124999999999034e+02 3.346771438987448948e-75
1.047262499999999079e+02 6.430051908494698624e-75
1.049399999999998840e+02 9.419189316361236533e-75
1.051537499999998886e+02 1.161467422077460505e-74
1.053674999999998931e+02 1.219425750915346746e-74
1.055812499999998977e+02 1.034249423759274420e-74
1.057949999999999022e+02 5.433557867115572481e-75
1.060087499999999068e+02 -2.750681703460383678e-75
1.062224999999998829e+02 -1.380069548623398263e-74
1.064362499999998875e+02 -2.650523359055332077e-74
1.066499999999998920e+02 -3.878078868550046942e-74
1.068637499999998965e+02 -4.776339684868773094e-74
1.070774999999999011e+02 -5.011026564148320047e-74
1.072912499999999056e+02 -4.253220500822992299e-74
1.075049999999998818e+02 -2.253570690065258209e-74
1.077187499999998863e+02 1.070136528210910214e-74
1.079324999999998909e+02 5.545729524883409833e-74
1.081462499999998954e+02 1.067897470983332282e-73
1.083599999999999000e+02 1.562834545707177589e-73
1.085737499999999045e+02 1.924519388091635512e-73
1.087874999999998806e+02 2.019736017204667614e-73
1.090012499999998852e+02 1.718336663666468763e-73
1.092149999999998897e+02 9.227455074081420674e-74
1.094287499999998943e+02 -3.975893431564777708e-74
1.096424999999998988e+02 -2.172284364593321323e-73
1.098562499999999034e+02 -4.204243279011793476e-73
1.100699999999998795e+02 -6.160903958222027664e-73
1.102837499999998840e+02 -7.591278652874656325e-73
1.104974999999998886e+02 -7.975475427670804788e-73
1.107112499999998931e+02 -6.809016497643538604e-73
1.109249999999998977e+02 -3.717644308987876543e-73
1.111387499999999022e+02 1.410025228504124848e-73
1.113524999999998784e+02 8.293544959964431833e-73
1.115662499999998829e+02 1.616467816424475452e-72
1.117799999999998875e+02 2.373822494931219644e-72
1.119937499999998920e+02 2.928235037391959696e-72
1.122074999999998965e+02 3.081255901717147478e-72
1.124212499999999011e+02 2.641629484119670258e-72
1.126349999999998772e+02 1.468973769724238355e-72
1.128487499999998818e+02 -4.763001126376316171e-73
1.130624999999998863e+02 -3.085094880764330159e-72
1.132762499999998909e+02 -6.064811104734064592e-72
1.134899999999998954e+02 -8.930143408750069982e-72
1.137037499999999000e+02 -1.103138595428856936e-71
1.139174999999998761e+02 -1.162870149296472136e-71
1.141312499999998806e+02 -1.001422296420301423e-71
1.143449999999998852e+02 -5.674340408042460935e-72
1.145587499999998897e+02 1.526995516579770535e-72
1.147724999999998943e+02 1.117493699896708243e-71
1.149862499999998988e+02 2.218103420441288706e-71
1.151999999999998749e+02 3.275648462323303582e-71
1.154137499999998795e+02 4.052339157429626199e-71
1.156274999999998840e+02 4.279260034335777546e-71
1.158412499999998886e+02 3.701201528730858362e-71
1.160549999999998931e+02 2.135453909036607960e-71
1.162687499999998977e+02 -4.626428585178025675e-72
1.164824999999999022e+02 -3.938723851034706085e-71
1.166962499999998784e+02 -7.897577586502308932e-71
1.169099999999998829e+02 -1.169641121303241686e-70
1.171237499999998875e+02 -1.448760515847701298e-70
1.173374999999998920e+02 -1.532020661268591917e-70
1.175512499999998965e+02 -1.330040003391557786e-70
1.177649999999999011e+02 -7.798827302505239765e-71
1.179787499999998772e+02 1.321685274230627401e-71
1.181924999999998818e+02 1.349836774327135040e-70
1.184062499999998863e+02 2.733153760816133710e-70
1.186199999999998909e+02 4.057272629682969474e-70
1.188337499999998954e+02 5.028546833631805690e-70
1.190474999999999000e+02 5.320711306550999881e-70
1.192612499999998761e+02 4.630794017561668542e-70
1.194749999999998806e+02 2.750110686501985393e-70
1.196887499999998852e+02 -3.591221424252984293e-71
1.199024999999998897e+02 -4.495552676189248323e-70
1.201162499999998943e+02 -9.176021394389482104e-70
1.203299999999998988e+02 -1.363632480754149795e-69
1.205437499999998749e+02 -1.689046140190137035e-69
1.207574999999998795e+02 -1.785642225846291124e-69
1.209712499999998840e+02 -1.554547487260933573e-69
1.211849999999998886e+02 -9.297555223774772318e-70
1.213987499999998931e+02 9.702577025746210540e-71
1.216124999999998977e+02 1.454930568425506488e-69
1.218262499999998738e+02 2.981511170644864711e-69
1.220399999999998784e+02 4.424982880442162722e-69
1.222537499999998829e+02 5.465644803319860375e-69
1.224674999999998875e+02 5.758506503882419546e-69
1.226812499999998920e+02 4.995408109063067845e-69
1.228949999999998965e+02 2.980276495429812522e-69
1.231087499999998727e+02 -2.937096134284957716e-70
1.233224999999998772e+02 -4.580412713848494926e-69
1.235362499999998818e+02 -9.348143633154475932e-69
1.237499999999998863e+02 -1.379517279849289338e-68
1.239637499999998909e+02 -1.692587238732558989e-68
1.241774999999998954e+02 -1.769144103613323698e-68
1.243912499999998715e+02 -1.518693598874482366e-68
1.246049999999998761e+02 -8.881852867310859067e-69
1.248187499999998806e+02 1.152910069509531571e-69
1.250324999999998852e+02 1.407009317645113089e-68
1.252462499999998897e+02 2.817612895985678891e-68
1.254599999999998943e+02 4.101407962590982278e-68
1.256737499999998704e+02 4.963037084903804930e-68
1.258874999999998749e+02 5.102724987315060496e-68