2.024999999999579359e-01 -2.646330322338531206e-107
4.162499999999482725e-01 -2.081680427868302610e-108
6.299999999999528200e-01 4.921756292135821374e-107
8.437499999999573674e-01 1.304691381192870411e-106
1.057499999999947704e+00 2.331565383718619423e-106
1.271249999999952252e+00 3.294036902385446603e-106
1.484999999999956799e+00 3.655753418154384022e-106
1.698749999999947136e+00 2.618360076941501174e-106
1.912499999999951683e+00 -7.605650935592726400e-107
2.126249999999956231e+00 -7.260139166896065410e-106
2.339999999999946567e+00 -1.695587994909282687e-105
2.553749999999951115e+00 -2.847103116463183848e-105
2.767499999999955662e+00 -3.816803593319579966e-105
2.981249999999945999e+00 -3.960486622093715012e-105
3.194999999999950546e+00 -2.377704271505068138e-105
3.408749999999955094e+00 1.919093589641633157e-105
3.622499999999945430e+00 9.627072416493965931e-105
3.836249999999949978e+00 2.053940158060825652e-104
4.049999999999954525e+00 3.275099291115411775e-104
4.263749999999944862e+00 4.187711699816295115e-104
4.477499999999949409e+00 4.065982407424537868e-104
4.691249999999953957e+00 1.951935157625247632e-104
4.904999999999944293e+00 -3.129251703391382307e-104
5.118749999999948841e+00 -1.173872413731013496e-103
5.332499999999953388e+00 -2.336934150197182067e-103
5.546249999999943725e+00 -3.565187730638175460e-103
5.759999999999948272e+00 -4.365061553081037875e-103
5.973749999999952820e+00 -3.965198390541327759e-103
6.187499999999943157e+00 -1.400635321788103963e-103
6.401249999999947704e+00 4.236684721428093314e-103
6.614999999999952252e+00 1.333782132653548254e-102
6.828749999999942588e+00 2.511752082333484772e-102
7.042499999999947136e+00 3.686450467785073214e-102
7.256249999999951683e+00 4.335080638682907461e-102
7.469999999999942020e+00 3.680841193663170936e-102
7.683749999999946567e+00 8.004697093330777102e-103
7.897499999999951115e+00 -5.105088659893231135e-102
8.111249999999941451e+00 -1.424687678367021126e-101
8.324999999999945999e+00 -2.561836828495587642e-101
8.538749999999950546e+00 -3.632465707169369478e-101
8.752499999999940883e+00 -4.112490851821828586e-101
8.966249999999945430e+00 -3.257827280827614026e-101
9.179999999999949978e+00 -2.270982800359333624e-102
9.393749999999940314e+00 5.643882863189635303e-101
9.607499999999944862e+00 1.439878414188521232e-100
9.821249999999949409e+00 2.488887298660340165e-100
1.003499999999993975e+01 3.420342560978611698e-100
1.024874999999994429e+01 3.734726235829807394e-100
1.046249999999994884e+01 2.751944773268134608e-100
1.067624999999993918e+01 -2.599032755169549378e-101
1.088999999999994373e+01 -5.821328096930949660e-100
1.110374999999994827e+01 -1.383798130584943894e-99
1.131749999999993861e+01 -2.310512089653311292e-99
1.153124999999994316e+01 -3.084840183577643095e-99
1.174499999999994770e+01 -3.252438572887465585e-99
1.195874999999993804e+01 -2.218675861864743982e-99
1.217249999999994259e+01 6.250635919157972158e-100
1.238624999999994714e+01 5.661433099699433648e-99
1.259999999999993747e+01 1.269641344439309120e-98
1.281374999999994202e+01 2.054899008144484711e-98
1.302749999999994657e+01 2.670004487199697194e-98
1.324124999999995111e+01 2.719462421207158530e-98
1.345499999999994145e+01 1.705006220815426200e-98
1.366874999999994600e+01 -8.574385351159342456e-99
1.388249999999995055e+01 -5.228966245260529402e-98
1.409624999999994088e+01 -1.115588464816928400e-97
1.430999999999994543e+01 -1.754476284539418501e-97
1.452374999999994998e+01 -2.220873043987010917e-97
1.473749999999994031e+01 -2.184622839806038449e-97
1.495124999999994486e+01 -1.245130315777913937e-97
1.516499999999994941e+01 9.657200522210120327e-98
1.537874999999993975e+01 4.609701444538952622e-97
1.559249999999994429e+01 9.409543307886295036e-97
1.580624999999994884e+01 1.440285339543538032e-96
1.601999999999993918e+01 1.777008064360463797e-96
1.623374999999994373e+01 1.686455595438444692e-96
1.644749999999994827e+01 8.594626436562619038e-97
1.666124999999993861e+01 -9.712351909771547655e-97
1.687499999999994316e+01 -3.892227854799159095e-96
1.708874999999994770e+01 -7.631496076717496422e-96
1.730249999999993804e+01 -1.138042617174411682e-95
1.751624999999994259e+01 -1.368570033310233151e-95
1.772999999999994714e+01 -1.250840044661247241e-95
1.794374999999993747e+01 -5.558216446390140471e-96
1.815749999999994202e+01 9.012912401384569082e-96
1.837124999999994657e+01 3.154826289068540866e-95
1.858499999999993690e+01 5.958192090437508717e-95
1.879874999999994145e+01 8.661171340062969028e-95
1.901249999999994600e+01 1.014843815917660386e-94
1.922624999999993634e+01 8.910111081005191822e-95
1.943999999999994088e+01 3.318259957187980927e-95
1.965374999999994543e+01 -7.839829336363244002e-95
1.986749999999993577e+01 -2.458108313340926304e-94
2.008124999999994031e+01 -4.481038425993399689e-94
2.029499999999994486e+01 -6.351652406146252628e-94
2.050874999999993520e+01 -7.247179909656680169e-94
2.072249999999993975e+01 -6.092787610530302063e-94
2.093624999999994429e+01 -1.778907843959469563e-94
2.114999999999993463e+01 6.445914458377475230e-94
2.136374999999993918e+01 1.842485869530364646e-93
2.157749999999994373e+01 3.247658330349264270e-93
2.179124999999993406e+01 4.489637137875244879e-93
2.200499999999993861e+01 4.984870575367429941e-93
2.221874999999994316e+01 3.997873559355665368e-93
2.243249999999993349e+01 8.039194261639934087e-94
2.264624999999993804e+01 -5.033541132351407635e-93
2.285999999999994259e+01 -1.329089128314477319e-92
2.307374999999993292e+01 -2.268779643818642129e-92
2.328749999999993747e+01 -3.059565400797892550e-92
2.350124999999994202e+01 -3.303457828667726224e-92
2.371499999999993236e+01 -2.516674334053231050e-92
2.392874999999993690e+01 -2.458399199502797438e-93
2.414249999999994145e+01 3.744158637748692110e-92
2.435624999999993179e+01 9.228890413261907951e-92
2.456999999999993634e+01 1.528039268841690297e-91
2.478374999999994088e+01 2.010785561588128428e-91
2.499749999999993122e+01 2.110058435430066471e-91
2.521124999999993577e+01 1.519907528881815612e-91
2.542499999999994031e+01 -3.119901271450277127e-93
2.563874999999993065e+01 -2.658344282051501940e-91
2.585249999999993520e+01 -6.169999142426364457e-91
2.606624999999993975e+01 -9.924566336742627422e-91
2.627999999999994429e+01 -1.274996218420955561e-90
2.649374999999993463e+01 -1.299836204014421742e-90
2.670749999999993918e+01 -8.808759413929984323e-91
2.692124999999994373e+01 1.375285860405489562e-91
2.713499999999993406e+01 1.804470655184476975e-90
2.734874999999993861e+01 3.972784244719676666e-90
2.756249999999994316e+01 6.218480811251503330e-90
2.777624999999993349e+01 7.804084443105209514e-90
2.798999999999993804e+01 7.728226778028481535e-90
2.820374999999994259e+01 4.901468855769463511e-90
2.841749999999993292e+01 -1.529836603865626647e-90
2.863124999999993747e+01 -1.172767722706270083e-89
2.884499999999994202e+01 -2.464760736944546274e-89
2.905874999999993236e+01 -3.760685679302304285e-89
2.927249999999993690e+01 -4.614077892316470453e-89
2.948624999999994145e+01 -4.438608969283403255e-89
2.969999999999993179e+01 -2.620023125804302151e-89
2.991374999999993634e+01 1.289489138629279329e-89
3.012749999999994088e+01 7.308639434395886176e-89
3.034124999999993122e+01 1.474307954841580933e-88
3.055499999999993577e+01 2.196457951613293107e-88
3.076874999999994031e+01 2.636990544579233341e-88
3.098249999999993065e+01 2.464815354930340351e-88
3.119624999999993520e+01 1.346077673138396957e-88
3.140999999999993975e+01 -9.437356560659353930e-89
3.162374999999993008e+01 -4.374090350539133364e-88
3.183749999999993463e+01 -8.508696266829924755e-88
3.205124999999993918e+01 -1.239800171953183364e-87
3.226499999999992951e+01 -1.457844226280186601e-87
3.247874999999993406e+01 -1.324519545976250738e-87
3.269249999999993861e+01 -6.647655841893464885e-88
3.290624999999992895e+01 6.288219472923081474e-88
3.311999999999993349e+01 2.518070353329507443e-87
3.333374999999993804e+01 4.742213043515398307e-87
3.354749999999992838e+01 6.768206888465623337e-87
3.376124999999993292e+01 7.801734344552250224e-87
3.397499999999993747e+01 6.892139140097132837e-87
3.418874999999992781e+01 3.153218231022674512e-87
3.440249999999993236e+01 -3.903703759346294755e-87
3.461624999999993690e+01 -1.396760439655076602e-86
3.482999999999992724e+01 -2.554859154999749558e-86
3.504374999999993179e+01 -3.576122237186781711e-86
3.525749999999993634e+01 -4.043899341120515630e-86
3.547124999999992667e+01 -3.473916307040982911e-86
3.568499999999993122e+01 -1.432916562103415177e-86
3.589874999999993577e+01 2.289222621359448192e-86
3.611249999999992610e+01 7.478956772996376564e-86
3.632624999999993065e+01 1.331921984808538840e-85
3.653999999999993520e+01 1.830125072058616962e-85
3.675374999999992554e+01 2.031041977539203360e-85
3.696749999999993008e+01 1.695924874676323619e-85
3.718124999999993463e+01 6.202440328893212776e-86
3.739499999999992497e+01 -1.280314910070405826e-85
3.760874999999992951e+01 -3.873175007374207313e-85
3.782249999999993406e+01 -6.726726035892032605e-85
3.803624999999993861e+01 -9.077629994278777740e-85
3.824999999999994316e+01 -9.886366913896609284e-85
3.846374999999991928e+01 -8.013308415317663169e-85
3.867749999999992383e+01 -2.526957835691708237e-85
3.889124999999992838e+01 6.880071617855967793e-85
3.910499999999993292e+01 1.944024021267411413e-84
3.931874999999993747e+01 3.295047509254146444e-84
3.953249999999994202e+01 4.366786112749665000e-84
3.974624999999991815e+01 4.663821653647483731e-84
3.995999999999992269e+01 3.659374905260131400e-84
4.017374999999992724e+01 9.449498755101772135e-85
4.038749999999993179e+01 -3.574662516609147834e-84
4.060124999999993634e+01 -9.478029013633474176e-84
4.081499999999994088e+01 -1.567540110149197967e-83
4.102874999999991701e+01 -2.038524815011674703e-83
4.124249999999992156e+01 -2.131662749273887564e-83
4.145624999999992610e+01 -1.611200988692345274e-83
4.166999999999993065e+01 -3.052275007530443626e-84
4.188374999999993520e+01 1.805655413474161858e-83
4.209749999999993975e+01 4.499632541605191333e-83
4.231124999999991587e+01 7.252904638437890023e-83
4.252499999999992042e+01 9.241023358350630002e-83
4.273874999999992497e+01 9.435263754013249361e-83
4.295249999999992951e+01 6.814640813868296053e-83
4.316624999999993406e+01 6.887612064737696538e-84
4.337999999999993861e+01 -8.910736415105874224e-83
4.359374999999991473e+01 -2.085641514441573121e-82
4.380749999999991928e+01 -3.269539206343676791e-82
4.402124999999992383e+01 -4.071189625416618775e-82
4.423499999999992838e+01 -4.041661942864502343e-82
4.444874999999993292e+01 -2.753455464264217831e-82
4.466249999999993747e+01 5.554128692327197055e-84
4.487624999999991360e+01 4.314173464881084430e-82
4.508999999999991815e+01 9.466073996912859078e-82
4.530374999999992269e+01 1.438930890028928493e-81
4.551749999999992724e+01 1.744989432234766883e-81
4.573124999999993179e+01 1.674204431186118955e-81
4.594499999999993634e+01 1.053717711147424631e-81
4.615874999999991246e+01 -2.089961382076475708e-82
4.637249999999991701e+01 -2.056121057466569729e-81
4.658624999999992156e+01 -4.220029249272009985e-81
4.679999999999992610e+01 -6.198231762135233128e-81
4.701374999999993065e+01 -7.288191861691365852e-81
4.722749999999993520e+01 -6.701877423515905147e-81
4.744124999999993975e+01 -3.765325814592551351e-81
4.765499999999991587e+01 1.815212041185981229e-81
4.786874999999992042e+01 9.669052653404602676e-81
4.808249999999992497e+01 1.853760531987882424e-80
4.829624999999992951e+01 2.621171191020373315e-80
4.850999999999993406e+01 2.973084555470961675e-80
4.872374999999993861e+01 2.591532469409504829e-80
4.893749999999991473e+01 1.223560165554540226e-80
4.915124999999991928e+01 -1.207961257279008297e-80
4.936499999999992383e+01 -4.491816795617069944e-80
4.957874999999992838e+01 -8.048122341768810873e-80
4.979249999999993292e+01 -1.092122682505185267e-79
5.000624999999993747e+01 -1.188491236008973715e-79
5.021999999999991360e+01 -9.683934288034406949e-80
5.043374999999991815e+01 -3.405938716998848027e-80
5.064749999999992269e+01 7.065421766691396916e-80
5.086124999999992724e+01 2.061505659732921859e-79
5.107499999999993179e+01 3.462167219123691404e-79
5.128874999999993634e+01 4.500875848045479008e-79
5.150249999999991246e+01 4.676873148220618204e-79
5.171624999999991701e+01 3.503577915134134105e-79
5.192999999999992156e+01 6.652037814839086843e-80
5.214374999999992610e+01 -3.800741947121152493e-79
5.235749999999993065e+01 -9.338165464293401010e-79
5.257124999999993520e+01 -1.478357606463728660e-78
5.278499999999991132e+01 -1.841910886463103273e-78
5.299874999999991587e+01 -1.822181980242879668e-78
5.321249999999992042e+01 -1.233072291107683881e-78
5.342624999999992497e+01 3.028254590314352267e-80
5.363999999999992951e+01 1.918882038941499957e-78
5.385374999999993406e+01 4.168021628821100635e-78
5.406749999999991019e+01 6.270448938846842437e-78
5.428124999999991473e+01 7.510053401356957899e-78
5.449499999999991928e+01 7.075862560856964817e-78
5.470874999999992383e+01 4.261515164368561901e-78
5.492249999999992838e+01 -1.267976745530000560e-78
5.513624999999993292e+01 -9.189705636918247681e-78
5.534999999999990905e+01 -1.829350847899303728e-77
5.556374999999991360e+01 -2.640729783570085914e-77
5.577749999999991815e+01 -3.057593382537811672e-77
5.599124999999992269e+01 -2.756471266247766690e-77
5.620499999999992724e+01 -1.469583669237026957e-77
5.641874999999993179e+01 9.069622615613538670e-78
5.663249999999990791e+01 4.200817213725282762e-77
5.684624999999991246e+01 7.878482169766169158e-77
5.705999999999991701e+01 1.102669275220004740e-76
5.727374999999992156e+01 1.243811462005512217e-76
5.748749999999992610e+01 1.082682725301138044e-76
5.770124999999993065e+01 5.172880362598826344e-77
5.791499999999990678e+01 -4.843454874768886929e-77
5.812874999999991132e+01 -1.840280876088433846e-76
5.834249999999991587e+01 -3.323087588650080590e-76
5.855624999999992042e+01 -4.555873004608189782e-76
5.876999999999992497e+01 -5.050497801751615950e-76
5.898374999999992951e+01 -4.297158205867795690e-76
5.919749999999990564e+01 -1.903850091875168855e-76
5.941124999999991019e+01 2.231115815901591459e-76
5.962499999999991473e+01 7.748141677457693273e-76
5.983874999999991928e+01 1.370764984695135146e-75
6.005249999999992383e+01 1.858345024042328178e-75
6.026624999999992838e+01 2.042389119568290460e-75
6.047999999999990450e+01 1.721433053743871431e-75
6.069374999999990905e+01 7.432007546451551665e-76
6.090749999999991360e+01 -9.275604672140945927e-76
6.112124999999991815e+01 -3.142635561118808699e-75
6.133499999999992269e+01 -5.525142632148829886e-75
6.154874999999992724e+01 -7.468710799098276777e-75
6.176249999999993179e+01 -8.202330448913347316e-75
6.197624999999990791e+01 -6.933352278416426030e-75
6.218999999999991246e+01 -3.064571743598096076e-75
6.240374999999991701e+01 3.541795534590449802e-75
6.261749999999992156e+01 1.230662517701050220e-74
6.283124999999992610e+01 2.175944243064953766e-74
6.304499999999993065e+01 2.953576573811737202e-74
6.325874999999990678e+01 3.262757160789601846e-74
6.347249999999991132e+01 2.793425945947780496e-74
6.368624999999991587e+01 1.309832243754145528e-74
6.389999999999992042e+01 -1.247806733001122416e-74
6.411374999999992497e+01 -4.663874115324603084e-74
6.432749999999992951e+01 -8.379262979096021385e-74
6.454124999999990564e+01 -1.148838899598259237e-73
6.475499999999991019e+01 -1.283235010386763039e-73
6.496874999999991473e+01 -1.120657886785180592e-73
6.518249999999991928e+01 -5.677645750617663560e-74
6.539624999999992383e+01 4.029192978226454951e-74
6.560999999999992838e+01 1.714757885576448310e-73
6.582374999999990450e+01 3.160205267089872049e-73
6.603749999999990905e+01 4.398193209927189055e-73
6.625124999999991360e+01 4.987545432875473225e-73
6.646499999999991815e+01 4.463640035465709043e-73
6.667874999999992269e+01 2.456813155975701797e-73
6.689249999999992724e+01 -1.161284337358375642e-73
6.710624999999990337e+01 -6.131203384152170406e-73
6.731999999999990791e+01 -1.169961547053358997e-72
6.753374999999991246e+01 -1.660141371360740858e-72
6.774749999999991701e+01 -1.917511235257278447e-72
6.796124999999992156e+01 -1.764034432599570922e-72
6.817499999999992610e+01 -1.053463104815122728e-72
6.838874999999990223e+01 2.738527777645821726e-73
6.860249999999990678e+01 2.135049819146685424e-72
6.881624999999991132e+01 4.262589676851264576e-72
6.902999999999991587e+01 6.193650911430630582e-72
6.924374999999992042e+01 7.308261074114743825e-72
6.945749999999992497e+01 6.927769105736199224e-72
6.967124999999990109e+01 4.473995014901671226e-72
6.988499999999990564e+01 -3.270149101539137778e-73
7.009874999999991019e+01 -7.232087432469491884e-72
7.031249999999991473e+01 -1.531276571390651684e-71
7.052624999999991928e+01 -2.289782730372281708e-71
7.073999999999992383e+01 -2.769194897387022394e-71
7.095374999999989996e+01 -2.711758815710067608e-71
7.116749999999990450e+01 -1.888778939444783595e-71
7.138124999999990905e+01 -1.758602947332414614e-72
7.159499999999991360e+01 2.366171192090756549e-71
7.180874999999991815e+01 5.423983803543401479e-71
7.202249999999992269e+01 8.402372165721381504e-71
7.223624999999989882e+01 1.045774315118052789e-70
7.244999999999990337e+01 1.061364639910531082e-70
7.266374999999990791e+01 7.964093210183506860e-71
7.287749999999991246e+01 1.949440216603694422e-71
7.309124999999991701e+01 -7.336609206224256830e-71
7.330499999999992156e+01 -1.887715203802788103e-70
7.351874999999989768e+01 -3.058819094683469795e-70
7.373249999999990223e+01 -3.939554246884374278e-70
7.394624999999990678e+01 -4.161090452685168476e-70
7.415999999999991132e+01 -3.364084328830933568e-70
7.437374999999991587e+01 -1.298913287341566252e-70
7.458749999999992042e+01 2.058249817314891755e-70
7.480124999999992497e+01 6.397217956360892525e-70
7.501499999999990109e+01 1.100559719320053295e-69
7.522874999999990564e+01 1.477654579621206188e-69
7.544249999999991019e+01 1.632438388432117180e-69
7.565624999999991473e+01 1.422576775489228386e-69
7.586999999999991928e+01 7.379037415096765105e-70
7.608374999999992383e+01 -4.559932756664742339e-70
7.629749999999989996e+01 -2.074560085027876423e-69
7.651124999999990450e+01 -3.882922780449768714e-69
7.672499999999990905e+01 -5.489889757262519796e-69
7.693874999999991360e+01 -6.380185987113995824e-69
7.715249999999991815e+01 -5.993562959908697916e-69
7.736624999999992269e+01 -3.851083544589908680e-69
7.757999999999989882e+01 2.832235102574392900e-70
7.779374999999990337e+01 6.231538992001914700e-69
7.800749999999990791e+01 1.326244066567959518e-68
7.822124999999991246e+01 2.003208009523570483e-68
7.843499999999991701e+01 2.465758294964967129e-68
7.864874999999992156e+01 2.496255905966700615e-68
7.886249999999989768e+01 1.890803520350488774e-68
7.907624999999990223e+01 5.180443664948334008e-69
7.928999999999990678e+01 -1.614446973879568554e-68
7.950374999999991132e+01 -4.299822559138019619e-68
7.971749999999991587e+01 -7.095789484928843362e-68
7.993124999999992042e+01 -9.332569089045201559e-68
8.014499999999989654e+01 -1.018252234159276170e-67
8.035874999999990109e+01 -8.801038244146859904e-68
8.057249999999990564e+01 -4.534428411560387146e-68
8.078624999999991019e+01 2.828282810522709677e-68
8.099999999999991473e+01 1.280406590122906096e-67
8.121374999999991928e+01 2.402889646860222989e-67
8.142749999999989541e+01 3.421071724393438106e-67
8.164124999999989996e+01 4.029600317907459767e-67
8.185499999999990450e+01 3.890221220435226765e-67
8.206874999999990905e+01 2.702457987285044532e-67
8.228249999999991360e+01 2.960623792633458580e-68
8.249624999999991815e+01 -3.268362874103047945e-67
8.270999999999989427e+01 -7.612169264284777534e-67
8.292374999999989882e+01 -1.199259907833138898e-66
8.313749999999990337e+01 -1.532741836729283315e-66
8.335124999999990791e+01 -1.631512793636168775e-66
8.356499999999991246e+01 -1.366272978280995647e-66
8.377874999999991701e+01 -6.411537968849542010e-67
8.399249999999989313e+01 5.676946075471643882e-67
8.420624999999989768e+01 2.174450256512708285e-66
8.441999999999990223e+01 3.956631895347898595e-66
8.463374999999990678e+01 5.550105322830498978e-66
8.484749999999991132e+01 6.476906063510089860e-66
8.506124999999991587e+01 6.213310411991527004e-66
8.527499999999989200e+01 4.298901619689150620e-66
8.548874999999989654e+01 4.776214904511660491e-67
8.570249999999990109e+01 -5.149957212421167479e-66
8.591624999999990564e+01 -1.199563264847527574e-65
8.612999999999991019e+01 -1.891516801307096280e-65
8.634374999999991473e+01 -2.424630486723964441e-65
8.655749999999989086e+01 -2.598989825442149940e-65
8.677124999999989541e+01 -2.215173245527138414e-65
8.698499999999989996e+01 -1.123094083892555744e-65
8.719874999999990450e+01 7.200803547523569385e-66
8.741249999999990905e+01 3.193119447494079070e-65
8.762624999999991360e+01 5.969310586225838598e-65
8.783999999999991815e+01 8.507085674404383154e-65
8.805374999999989427e+01 1.008869222447364480e-64
8.826749999999989882e+01 9.918097188899661708e-65
8.848124999999990337e+01 7.279746099882447263e-65
8.869499999999990791e+01 1.745780482867656684e-65
8.890874999999991246e+01 -6.597652740157905292e-65
8.912249999999991701e+01 -1.695143319466905052e-64
8.933624999999989313e+01 -2.769136179798973408e-64
8.954999999999989768e+01 -3.640671717392988970e-64
8.976374999999990223e+01 -4.014400149761774217e-64
8.997749999999990678e+01 -3.588412131259878733e-64
9.019124999999991132e+01 -2.123713539785587231e-64
9.040499999999991587e+01 4.720119841334777185e-65
9.061874999999989200e+01 4.060378702093218719e-64
9.083249999999989654e+01 8.207980657596150703e-64
9.104624999999990109e+01 1.216539555974720117e-63
9.125999999999990564e+01 1.491265213120737685e-63
9.147374999999991019e+01 1.528810602477873752e-63
9.168749999999991473e+01 1.220485630621704431e-63
9.190124999999989086e+01 4.939720374949428846e-64
9.211499999999989541e+01 -6.543680124557046412e-64
9.232874999999989996e+01 -2.130019537541689741e-63
9.254249999999990450e+01 -3.721835983935318062e-63
9.275624999999990905e+01 -5.103472773195177073e-63
9.296999999999991360e+01 -5.862611628745137658e-63
9.318374999999988972e+01 -5.562520949540292569e-63
9.339749999999989427e+01 -3.834723045582160767e-63
9.361124999999989882e+01 -4.936935346959159804e-64
9.382499999999990337e+01 4.344386920252006591e-63
9.403874999999990791e+01 1.016509998161264408e-62
9.425249999999991246e+01 1.601321932337751039e-62
9.446624999999988859e+01 2.053606466553859102e-62
9.467999999999989313e+01 2.213753205598894253e-62
9.489374999999989768e+01 1.925161165069409679e-62
9.510749999999990223e+01 1.071976436817870869e-62
9.532124999999990678e+01 -3.774086158685959380e-63
9.553499999999991132e+01 -2.328927297229579599e-62
9.574874999999988745e+01 -4.533976064122702289e-62
9.596249999999989200e+01 -6.584885381051481454e-62
9.617624999999989654e+01 -7.945525327779561508e-62
9.638999999999990109e+01 -8.023975704707704285e-62
9.660374999999990564e+01 -6.287164040125918706e-62
9.681749999999991019e+01 -2.407582915917101921e-62
9.703124999999988631e+01 3.579171223821171431e-62
9.724499999999989086e+01 1.113821766805441915e-61
9.745874999999989541e+01 1.916050803788958959e-61
9.767249999999989996e+01 2.599072860235523665e-61
9.788624999999990450e+01 2.959202505746039696e-61
9.809999999999990905e+01 2.786333921366371710e-61
9.831374999999988518e+01 1.909611762037395853e-61
9.852749999999988972e+01 2.519858716538287140e-62
9.874124999999989427e+01 -2.115418327264670481e-61
9.895499999999989882e+01 -4.931665908061769311e-61
9.916874999999990337e+01 -7.731611194161758727e-61
9.938249999999990791e+01 -9.872587265661101521e-61
9.959624999999988404e+01 -1.061197638122012756e-60
9.980999999999988859e+01 -9.237571364162236583e-61
1.000237499999998931e+02 -5.241294358593067301e-61
1.002374999999998977e+02 1.486689525628421973e-61
1.004512499999999022e+02 1.047987289818679578e-60
1.006649999999999068e+02 2.057998426983593146e-60
1.008787499999998829e+02 2.993440929072889215e-60
1.010924999999998875e+02 3.615001185026730801e-60
1.013062499999998920e+02 3.662787673268626812e-60
1.015199999999998965e+02 2.907168631167389484e-60
1.017337499999999011e+02 1.212029815178855747e-60
1.019474999999999056e+02 -1.399168253329192544e-60
1.021612499999999102e+02 -4.688404244718868541e-60
1.023749999999998863e+02 -8.175749811575263799e-60
1.025887499999998909e+02 -1.115618660818746703e-59
1.028024999999998954e+02 -1.277331089253547378e-59
1.030162499999999000e+02 -1.215456353749278558e-59
1.032299999999999045e+02 -8.600489863951410106e-60
1.034437499999999091e+02 -1.805598973625400550e-60
1.036574999999998852e+02 7.927006131108473981e-60
1.038712499999998897e+02 1.952761735356560367e-59
1.040849999999998943e+02 3.111477220103193088e-59
1.042987499999998988e+02 4.011458174676740729e-59
1.045124999999999034e+02 4.357825389934211472e-59
1.047262499999999079e+02 3.869954463957178233e-59
1.049399999999998840e+02 2.348984731491748736e-59
1.051537499999998886e+02 -2.481933367620270845e-60
1.053674999999998931e+02 -3.742573069604947685e-59
1.055812499999998977e+02 -7.691800584638405967e-59
1.057949999999999022e+02 -1.139232800316958229e-58
1.060087499999999068e+02 -1.394014164376752776e-58
1.062224999999998829e+02 -1.435771857523478471e-58
1.064362499999998875e+02 -1.178292571889483420e-58
1.066499999999998920e+02 -5.700319119919484256e-59
1.068637499999998965e+02 3.821064198405801830e-59
1.070774999999999011e+02 1.593356426997545273e-58
1.072912499999999056e+02 2.891874113479075859e-58
1.075049999999998818e+02 4.025373575414645248e-58
1.077187499999998863e+02 4.687775718699670426e-58
1.079324999999998909e+02 4.567093603859193247e-58
1.081462499999998954e+02 3.411538497409776036e-58
1.083599999999999000e+02 1.105766483646218373e-58
1.085737499999999045e+02 -2.255875027654917819e-58
1.087874999999998806e+02 -6.316182755968223869e-58
1.090012499999998852e+02 -1.044066207425921967e-57
1.092149999999998897e+02 -1.375848783670791649e-57
1.094287499999998943e+02 -1.526920992825808678e-57
1.096424999999998988e+02 -1.401477988790102489e-57
1.098562499999999034e+02 -9.302073643358817129e-58
1.100699999999998795e+02 -9.449579836516396494e-59
1.102837499999998840e+02 1.051997122335450153e-57
1.104974999999998886e+02 2.369988968140058401e-57
1.107112499999998931e+02 3.635169275935129380e-57
1.109249999999998977e+02 4.557389223383740272e-57
1.111387499999999022e+02 4.820649625906802239e-57
1.113524999999998784e+02 4.142333265359963661e-57
1.115662499999998829e+02 2.345432026363720672e-57
1.117799999999998875e+02 -5.674116407356815069e-58
1.119937499999998920e+02 -4.353405266257494010e-57
1.122074999999998965e+02 -8.500266569011646899e-57
1.124212499999999011e+02 -1.224487491573374188e-56
1.126349999999998772e+02 -1.465206087258439105e-56
1.128487499999998818e+02 -1.475680604777825265e-56
1.130624999999998863e+02 -1.176057924146918322e-56
1.132762499999998909e+02 -5.257801558554266392e-57
1.134899999999998954e+02 4.546038222802386866e-57
1.137037499999999000e+02 1.667410265473558598e-56
1.139174999999998761e+02 2.932926944664030314e-56
1.141312499999998806e+02 4.000392633499014526e-56
1.143449999999998852e+02 4.577758019501467894e-56
1.145587499999998897e+02 4.380080520128464702e-56
1.147724999999998943e+02 3.192377155872940708e-56
1.149862499999998988e+02 9.383032547065569056e-57
1.151999999999998749e+02 -2.258045863102339278e-56
1.154137499999998795e+02 -6.032601859772371360e-56
1.156274999999998840e+02 -9.779733666213148920e-56
1.158412499999998886e+02 -1.270131147132054107e-55
1.160549999999998931e+02 -1.391250323672353291e-55
1.162687499999998977e+02 -1.260031076566586747e-55
1.164824999999999022e+02 -8.218374208481424458e-56
1.166962499999998784e+02 -6.885683983777151347e-57
1.169099999999998829e+02 9.431024184379408269e-56
1.171237499999998875e+02 2.085806529757831945e-55
1.173374999999998920e+02 3.162210718256954791e-55
1.175512499999998965e+02 3.925715368387554269e-55
1.177649999999999011e+02 4.116014893869095501e-55
1.179787499999998772e+02 3.509295339105635133e-55
1.181924999999998818e+02 1.976798888795265192e-55
1.184062499999998863e+02 -4.578891350045559080e-56
1.186199999999998909e+02 -3.575265683356032369e-55
1.188337499999998954e+02 -6.943537151887039369e-55
1.190474999999999000e+02 -9.941486869359143859e-55
1.192612499999998761e+02 -1.182818302543599258e-54
1.194749999999998806e+02 -1.185969718329742176e-54
1.196887499999998852e+02 -9.443206872295274963e-55
1.199024999999998897e+02 -4.308010430845774951e-55
1.201162499999998943e+02 3.336962445973992237e-55
1.203299999999998988e+02 1.269623862126859936e-54
1.205437499999998749e+02 2.236957713183033609e-54
1.207574999999998795e+02 3.045386217276706613e-54
1.209712499999998840e+02 3.478125117982175150e-54
1.211849999999998886e+02 3.328631980608180423e-54
1.213987499999998931e+02 2.446583300393721517e-54
1.216124999999998977e+02 7.864259625268659667e-55
1.218262499999998738e+02 -1.550782716775456433e-54
1.220399999999998784e+02 -4.292995144284403624e-54
1.222537499999998829e+02 -7.000678607919552917e-54
1.224674999999998875e+02 -9.106040131026640663e-54
1.226812499999998920e+02 -9.990796331104959767e-54
1.228949999999998965e+02 -9.098188945020477762e-54
1.231087499999998727e+02 -6.066543282702708960e-54
1.233224999999998772e+02 -8.633408752322040158e-55
1.235362499999998818e+02 6.107720232681887895e-54
1.237499999999998863e+02 1.395697324517592208e-53
1.239637499999998909e+02 2.134397420493145474e-53
1.241774999999998954e+02 2.661609714408291142e-53
1.243912499999998715e+02 2.805323655234710636e-53
1.246049999999998761e+02 2.420026447794364352e-53
1.248187499999998806e+02 1.424529250548223894e-53
1.250324999999998852e+02 -1.620237700832818574e-54
1.252462499999998897e+02 -2.193905273096024317e-53
1.254599999999998943e+02 -4.390625701562813001e-53
1.256737499999998704e+02 -6.353908229074677478e-53
1.258874999999998749e+02 -7.613848310462586920e-53
1.261012499999998795e+02 -7.703499868691805204e-53
1.263149999999998840e+02 -6.255075066329512215e-53
1.265287499999998886e+02 -3.104492595238230590e-53
1.267424999999998931e+02 1.614631438581201265e-53