2.024999999999579359e-01 -3.084993986713133621e-139
4.162499999999482725e-01 -3.835685753370704758e-139
6.299999999999528200e-01 -3.514018627417722478e-139
8.437499999999573674e-01 -9.084392442821570198e-140
1.057499999999947704e+00 5.544278668940389399e-139
1.271249999999952252e+00 1.737949003276210216e-138
1.484999999999956799e+00 3.524143059624043409e-138
1.698749999999947136e+00 5.736679213429465500e-138
1.912499999999951683e+00 7.738104501707798975e-138
2.126249999999956231e+00 8.171132306790642898e-138
2.339999999999946567e+00 4.754257467134079103e-138
2.553749999999951115e+00 -5.681889016369443540e-138
2.767499999999955662e+00 -2.661722798152280767e-137
2.981249999999945999e+00 -6.032853097121939997e-137
3.194999999999950546e+00 -1.050474656892277255e-136
3.408749999999955094e+00 -1.506314828057777474e-136
3.622499999999945430e+00 -1.732228623193761475e-136
3.836249999999949978e+00 -1.305739393017463378e-136
4.049999999999954525e+00 3.845403648881555639e-137
4.263749999999944862e+00 4.044834642062768747e-136
4.477499999999949409e+00 1.020702725219046720e-135
4.691249999999953957e+00 1.870870143134191480e-135
4.904999999999944293e+00 2.789045680466249162e-135
5.118749999999948841e+00 3.359666305445854893e-135
5.332499999999953388e+00 2.828635813202039598e-135
5.546249999999943725e+00 8.895496385234074582e-137
5.759999999999948272e+00 -6.156789687963877931e-135
5.973749999999952820e+00 -1.692435639434624174e-134
6.187499999999943157e+00 -3.203897491973035075e-134
6.401249999999947704e+00 -4.874544005851504852e-134
6.614999999999952252e+00 -6.000319220924021034e-134
6.828749999999942588e+00 -5.301012148541395585e-134
7.042499999999947136e+00 -9.040727105138834385e-135
7.256249999999951683e+00 9.370735621689418093e-134
7.469999999999942020e+00 2.721417406702786520e-133
7.683749999999946567e+00 5.232784573199121008e-133
7.897499999999951115e+00 8.018236850227206873e-133
8.111249999999941451e+00 9.934498060916536091e-133
8.324999999999945999e+00 8.928916010733135714e-133
8.538749999999950546e+00 2.042208956680320653e-133
8.752499999999940883e+00 -1.410673649114324524e-132
8.966249999999945430e+00 -4.204368519382702586e-132
9.179999999999949978e+00 -8.111471673633586145e-132
9.393749999999940314e+00 -1.241138298057481510e-131
9.607499999999944862e+00 -1.534083875528805455e-131
9.821249999999949409e+00 -1.379970881360097728e-131
1.003499999999993975e+01 -3.409218973826710637e-132
1.024874999999994429e+01 2.070533618652493436e-131
1.046249999999994884e+01 6.198673943572322533e-131
1.067624999999993918e+01 1.190650464046624192e-130
1.088999999999994373e+01 1.810126372548616745e-130
1.110374999999994827e+01 2.221170902657525780e-130
1.131749999999993861e+01 1.982786673021145814e-130
1.153124999999994316e+01 4.865034761870520629e-131
1.174499999999994770e+01 -2.925129962371547079e-130
1.195874999999993804e+01 -8.684985410477711948e-130
1.217249999999994259e+01 -1.653931429482658530e-129
1.238624999999994714e+01 -2.492121906087581217e-129
1.259999999999993747e+01 -3.029104984898972839e-129
1.281374999999994202e+01 -2.673296738517177496e-129
1.302749999999994657e+01 -6.281063650007398156e-130
1.324124999999995111e+01 3.940361092626469389e-129
1.345499999999994145e+01 1.153826380135400408e-128
1.366874999999994600e+01 2.174946557982476130e-128
1.388249999999995055e+01 3.245653739432574425e-128
1.409624999999994088e+01 3.905864870954162994e-128
1.430999999999994543e+01 3.405850066789362211e-128
1.452374999999994998e+01 7.600592245062197561e-129
1.473749999999994031e+01 -5.030810278021987336e-128
1.495124999999994486e+01 -1.452103311370965837e-127
1.516499999999994941e+01 -2.709774917757481530e-127
1.537874999999993975e+01 -4.006599909602827875e-127
1.559249999999994429e+01 -4.777375881389638796e-127
1.580624999999994884e+01 -4.122700463698773010e-127
1.601999999999993918e+01 -8.870080757987253582e-128
1.623374999999994373e+01 6.065706025591997824e-127
1.644749999999994827e+01 1.730776131928068140e-126
1.666124999999993861e+01 3.201807403081595329e-126
1.687499999999994316e+01 4.696402655806991880e-126
1.708874999999994770e+01 5.557449575367342819e-126
1.730249999999993804e+01 4.761695375546270071e-126
1.751624999999994259e+01 1.021892099234981837e-126
1.772999999999994714e+01 -6.891380147621386549e-126
1.794374999999993747e+01 -1.953948656515565493e-125
1.815749999999994202e+01 -3.591183551209352732e-125
1.837124999999994657e+01 -5.234979484793072205e-125
1.858499999999993690e+01 -6.161349956636225152e-125
1.879874999999994145e+01 -5.264391243713883461e-125
1.901249999999994600e+01 -1.178910814276950678e-125
1.922624999999993634e+01 7.365597572678993970e-125
1.943999999999994088e+01 2.089665260591893157e-124
1.965374999999994543e+01 3.826341162693206210e-124
1.986749999999993577e+01 5.555404703770207627e-124
2.008124999999994031e+01 6.520027794913329836e-124
2.029499999999994486e+01 5.583232758668315442e-124
2.050874999999993520e+01 1.364266098508181993e-124
2.072249999999993975e+01 -7.393731718701612716e-124
2.093624999999994429e+01 -2.117026306179836060e-123
2.114999999999993463e+01 -3.874665381495628067e-123
2.136374999999993918e+01 -5.616743776432688852e-123
2.157749999999994373e+01 -6.591908168019575925e-123
2.179124999999993406e+01 -5.687089858462271780e-123
2.200499999999993861e+01 -1.568927431442999625e-123
2.221874999999994316e+01 6.954982095242335948e-123
2.243249999999993349e+01 2.031043568113659839e-122
2.264624999999993804e+01 3.729333434431202150e-122
2.285999999999994259e+01 5.411838946618047948e-122
2.307374999999993292e+01 6.369761097104504528e-122
2.328749999999993747e+01 5.564912129535995686e-122
2.350124999999994202e+01 1.767100300046787258e-122
2.371499999999993236e+01 -6.109696934651588695e-122
2.392874999999993690e+01 -1.843792765368479456e-121
2.414249999999994145e+01 -3.410523639624035031e-121
2.435624999999993179e+01 -4.968207451682806898e-121
2.456999999999993634e+01 -5.881366223755715330e-121
2.478374999999994088e+01 -5.227335480394284294e-121
2.499749999999993122e+01 -1.921684283536096134e-121
2.521124999999993577e+01 4.985271666032815272e-121
2.542499999999994031e+01 1.581575274187808960e-120
2.563874999999993065e+01 2.960799593563967484e-120
2.585249999999993520e+01 4.342054640913765113e-120
2.606624999999993975e+01 5.184060945452766443e-120
2.627999999999994429e+01 4.705920381565108395e-120
2.649374999999993463e+01 1.994950804512267285e-120
2.670749999999993918e+01 -3.745371326310286721e-120
2.692124999999994373e+01 -1.279017961091224245e-119
2.713499999999993406e+01 -2.436108332031237773e-119
2.734874999999993861e+01 -3.607138980657680069e-119
2.756249999999994316e+01 -4.354524692707559285e-119
2.777624999999993349e+01 -4.049669669092902295e-119
2.798999999999993804e+01 -1.960422347962381330e-119
2.820374999999994259e+01 2.552433527661172139e-119
2.841749999999993292e+01 9.718758132339305753e-119
2.863124999999993747e+01 1.894908035812985836e-118
2.884499999999994202e+01 2.841356985945377473e-118
2.905874999999993236e+01 3.476053488867304870e-118
2.927249999999993690e+01 3.318829128334170430e-118
2.948624999999994145e+01 1.811501489619729393e-118
2.969999999999993179e+01 -1.534686228115564652e-118
2.991374999999993634e+01 -6.904964385030101050e-118
3.012749999999994088e+01 -1.388172282030259098e-117
3.034124999999993122e+01 -2.114178842817399991e-117
3.055499999999993577e+01 -2.625950649070919735e-117
3.076874999999994031e+01 -2.576682464641000031e-117
3.098249999999993065e+01 -1.563853505599561599e-117
3.119624999999993520e+01 7.661854988592877656e-118
3.140999999999993975e+01 4.554652388713358285e-117
3.162374999999993008e+01 9.524304983633180264e-117
3.183749999999993463e+01 1.477481140705288710e-116
3.205124999999993918e+01 1.865434158466500368e-116
3.226499999999992951e+01 1.880796361851373174e-116
3.247874999999993406e+01 1.251090395870116806e-116
3.269249999999993861e+01 -2.631676252135479427e-117
3.290624999999992895e+01 -2.761111746584257639e-116
3.311999999999993349e+01 -6.068933846317183286e-116
3.333374999999993804e+01 -9.611587496510685581e-116
3.354749999999992838e+01 -1.233703767730409471e-115
3.376124999999993292e+01 -1.275548933246846968e-115
3.397499999999993747e+01 -9.157472694843052309e-116
3.418874999999992781e+01 -5.424670920572898448e-118
3.440249999999993236e+01 1.516560566480454414e-115
3.461624999999993690e+01 3.544985747263805901e-115
3.482999999999992724e+01 5.735558036577451898e-115
3.504374999999993179e+01 7.467267005677608378e-115
3.525749999999993634e+01 7.875432760645470054e-115
3.547124999999992667e+01 5.989076075980687339e-115
3.568499999999993122e+01 9.909043518404103961e-116
3.589874999999993577e+01 -7.413493772617076396e-115
3.611249999999992610e+01 -1.857771123835317775e-114
3.632624999999993065e+01 -3.056336264990863770e-114
3.653999999999993520e+01 -4.001914079717504682e-114
3.675374999999992554e+01 -4.247202410033309520e-114
3.696749999999993008e+01 -3.317594516259274007e-114
3.718124999999993463e+01 -8.549965514046065495e-115
3.739499999999992497e+01 3.195819608364183499e-114
3.760874999999992951e+01 8.400504918207766214e-114
3.782249999999993406e+01 1.371618995732240742e-113
3.803624999999993861e+01 1.752460215098349023e-113
3.824999999999994316e+01 1.789514551401659476e-113
3.846374999999991928e+01 1.311451077013191901e-113
3.867749999999992383e+01 2.436330535582480049e-114
3.889124999999992838e+01 -1.311490733280741529e-113
3.910499999999993292e+01 -3.018295186220400147e-113
3.931874999999993747e+01 -4.315679349660304472e-113
3.953249999999994202e+01 -4.527954712411126670e-113
3.974624999999991815e+01 -3.101327387155214157e-113
3.995999999999992269e+01 5.061893318046952357e-115
4.017374999999992724e+01 4.169710345638399808e-113
4.038749999999993179e+01 7.394225363675168334e-113
4.060124999999993634e+01 6.831041889070607714e-113
4.081499999999994088e+01 -8.094959555215563516e-114
4.102874999999991701e+01 -1.785152036004665151e-112
4.124249999999992156e+01 -4.359094374402762850e-112
4.145624999999992610e+01 -7.188934562908036070e-112
4.166999999999993065e+01 -8.922242452885504151e-112
4.188374999999993520e+01 -7.443467708566240582e-112
4.209749999999993975e+01 -1.741692788509707002e-113
4.231124999999991587e+01 1.515990120273559397e-111
4.252499999999992042e+01 3.923287446677557721e-111
4.273874999999992497e+01 6.940081286839396433e-111
4.295249999999992951e+01 9.792743488786466711e-111
4.316624999999993406e+01 1.108353730778038619e-110
4.337999999999993861e+01 8.835840000969398782e-111
4.359374999999991473e+01 8.109758076994228017e-112
4.380749999999991928e+01 -1.481033766212272597e-110
4.402124999999992383e+01 -3.835744950438368587e-110
4.423499999999992838e+01 -6.731592497394439165e-110
4.444874999999993292e+01 -9.498549860499193437e-110
4.466249999999993747e+01 -1.096668027724384993e-109
4.487624999999991360e+01 -9.509029946399497412e-110
4.508999999999991815e+01 -3.288112215431758018e-110
4.530374999999992269e+01 9.229663241396691380e-110
4.551749999999992724e+01 2.847666400034282902e-109
4.573124999999993179e+01 5.277978923890635006e-109
4.594499999999993634e+01 7.735520205304815425e-109
4.615874999999991246e+01 9.365874417345264197e-109
4.637249999999991701e+01 8.958228739117530423e-109
4.658624999999992156e+01 5.104379327016846686e-109
4.679999999999992610e+01 -3.457292241641046874e-109
4.701374999999993065e+01 -1.729862542197038375e-108
4.722749999999993520e+01 -3.560318877865846595e-108
4.744124999999993975e+01 -5.544007663784697442e-108
4.765499999999991587e+01 -7.123594621045306607e-108
4.786874999999992042e+01 -7.476129348619536639e-108
4.808249999999992497e+01 -5.599304591736009244e-108
4.829624999999992951e+01 -5.172869524587942462e-109
4.850999999999993406e+01 8.379602514799613537e-108
4.872374999999993861e+01 2.088123459324405285e-107
4.893749999999991473e+01 3.546032920664442822e-107
4.915124999999991928e+01 4.886271308770168979e-107
4.936499999999992383e+01 5.597536515174136982e-107
4.957874999999992838e+01 5.019905901533828970e-107
4.979249999999993292e+01 2.454082867623961988e-107
5.000624999999993747e+01 -2.644541736215005018e-107
5.021999999999991360e+01 -1.039245502073539071e-106
5.043374999999991815e+01 -2.015886129717130654e-106
5.064749999999992269e+01 -3.027006697044536415e-106
5.086124999999992724e+01 -3.784338903814672653e-106
5.107499999999993179e+01 -3.888381177018804288e-106
5.128874999999993634e+01 -2.878033752668055754e-106
5.150249999999991246e+01 -3.303723582126548577e-107
5.171624999999991701e+01 3.987996174665859110e-106
5.192999999999992156e+01 9.931011031289532638e-106
5.214374999999992610e+01 1.677702704877338646e-105
5.235749999999993065e+01 2.308029985984339107e-105
5.257124999999993520e+01 2.664250028512062064e-105
5.278499999999991132e+01 2.468535350320431722e-105
5.299874999999991587e+01 1.429604573592885298e-105
5.321249999999992042e+01 -6.818298022354344104e-106
5.342624999999992497e+01 -3.929683206958311559e-105
5.363999999999992951e+01 -8.093747459367089115e-105
5.385374999999993406e+01 -1.255970328973454904e-104
5.406749999999991019e+01 -1.625356276404220002e-104
5.428124999999991473e+01 -1.766453113839523183e-104
5.449499999999991928e+01 -1.500139955711952425e-104
5.470874999999992383e+01 -6.517265658937655155e-105
5.492249999999992838e+01 8.987871636360166672e-105
5.513624999999993292e+01 3.151878380174516440e-104
5.534999999999990905e+01 5.917932618738459370e-104
5.556374999999991360e+01 8.756204455773055833e-104
5.577749999999991815e+01 1.094462051894494126e-103
5.599124999999992269e+01 1.150570895438738538e-103
5.620499999999992724e+01 9.313768835661756467e-104
5.641874999999993179e+01 3.301942919478441272e-104
5.663249999999990791e+01 -7.226638368672460385e-104
5.684624999999991246e+01 -2.220283997947962683e-103
5.705999999999991701e+01 -4.036131567482372137e-103
5.727374999999992156e+01 -5.886345577757875192e-103
5.748749999999992610e+01 -7.309705636366259529e-103
5.770124999999993065e+01 -7.680358153610450005e-103
5.791499999999990678e+01 -6.269116782323753930e-103
5.812874999999991132e+01 -2.366589718347845988e-103
5.834249999999991587e+01 4.525761817860883602e-103
5.855624999999992042e+01 1.444330134868789764e-102
5.876999999999992497e+01 2.667009211895693738e-102
5.898374999999992951e+01 3.946451394386101717e-102
5.919749999999990564e+01 4.987510915046692452e-102
5.941124999999991019e+01 5.374824936816183913e-102
5.962499999999991473e+01 4.604511151289076955e-102
5.983874999999991928e+01 2.158209168812082338e-102
6.005249999999992383e+01 -2.372583126651308072e-102
6.026624999999992838e+01 -9.111726680718178316e-102
6.047999999999990450e+01 -1.768609470736677444e-101
6.069374999999990905e+01 -2.700691146435943357e-101
6.090749999999991360e+01 -3.509840404645558442e-101
6.112124999999991815e+01 -3.905039577183822467e-101
6.133499999999992269e+01 -3.518911222783480567e-101
6.154874999999992724e+01 -1.956406834289158366e-101
6.176249999999993179e+01 1.117231033763405801e-101
6.197624999999990791e+01 5.847283586594588235e-101
6.218999999999991246e+01 1.202734988211763847e-100
6.240374999999991701e+01 1.892703848468664092e-100
6.261749999999992156e+01 2.515062940581964878e-100
6.283124999999992610e+01 2.858645915806240020e-100
6.304499999999993065e+01 2.652092741081092351e-100
6.325874999999990678e+01 1.599347268823020484e-100
6.347249999999991132e+01 -5.548934455389994800e-101
6.368624999999991587e+01 -3.928560466978535891e-100
6.389999999999992042e+01 -8.381249020927846247e-100
6.411374999999992497e+01 -1.338708954523628469e-99
6.432749999999992951e+01 -1.793318530114724951e-99
6.454124999999990564e+01 -2.048860341870055351e-99
6.475499999999991019e+01 -1.909784739203176324e-99
6.496874999999991473e+01 -1.165201665018493775e-99
6.518249999999991928e+01 3.625493150201557781e-100
6.539624999999992383e+01 2.747911119135912086e-99
6.560999999999992838e+01 5.876799445182396285e-99
6.582374999999990450e+01 9.360202712374372995e-99
6.603749999999990905e+01 1.247011230039992515e-98
6.625124999999991360e+01 1.412949050819330544e-98
6.646499999999991815e+01 1.299246407414141850e-98
6.667874999999992269e+01 7.648004597019951729e-99
6.689249999999992724e+01 -3.033670932313870140e-99
6.710624999999990337e+01 -1.942067310313248549e-98
6.731999999999990791e+01 -4.055607549745434062e-98
6.753374999999991246e+01 -6.361641850976077008e-98
6.774749999999991701e+01 -8.355374176923734246e-98
6.796124999999992156e+01 -9.312889267980462697e-98
6.817499999999992610e+01 -8.356007596919272864e-98
6.838874999999990223e+01 -4.597492736970804508e-98
6.860249999999990678e+01 2.625374308766548888e-98
6.881624999999991132e+01 1.344015517169751765e-97
6.902999999999991587e+01 2.709032123480145068e-97
6.924374999999992042e+01 4.161965603953530144e-97
6.945749999999992497e+01 5.369404328398216662e-97
6.967124999999990109e+01 5.868767267796439303e-97
6.988499999999990564e+01 5.116268640739579986e-97
7.009874999999991019e+01 2.583988279285540926e-97
7.031249999999991473e+01 -2.091710972377085052e-97
7.052624999999991928e+01 -8.920527494511106914e-97
7.073999999999992383e+01 -1.735402896518630480e-96
7.095374999999989996e+01 -2.611242799678252142e-96
7.116749999999990450e+01 -3.310509979655621694e-96
7.138124999999990905e+01 -3.551797334099642502e-96
7.159499999999991360e+01 -3.013786763244380260e-96
7.180874999999991815e+01 -1.396084273107804280e-96
7.202249999999992269e+01 1.491616453550350018e-96
7.223624999999989882e+01 5.619477973206591261e-96
7.244999999999990337e+01 1.062344267108170642e-95
7.266374999999990791e+01 1.571420161552919893e-95
7.287749999999991246e+01 1.964501461037168239e-95
7.309124999999991701e+01 2.077846594562502199e-95
7.330499999999992156e+01 1.728859923272454953e-95
7.351874999999989768e+01 7.520051372997703591e-96
7.373249999999990223e+01 -9.502339198061403618e-96
7.394624999999990678e+01 -3.346133598810954787e-95
7.415999999999991132e+01 -6.213150137431301735e-95
7.437374999999991587e+01 -9.091187758348594137e-95
7.458749999999992042e+01 -1.127021584857146311e-94
7.480124999999992497e+01 -1.183341382693188802e-94
7.501499999999990109e+01 -9.774323176077076424e-95
7.522874999999990564e+01 -4.197827189644131987e-95
7.544249999999991019e+01 5.400761347006017970e-95
7.565624999999991473e+01 1.880634789110007421e-94
7.586999999999991928e+01 3.475893220977319107e-94
7.608374999999992383e+01 5.071418561942092053e-94
7.629749999999989996e+01 6.279212933991512097e-94
7.651124999999990450e+01 6.602307220022296063e-94
7.672499999999990905e+01 5.498380178109454529e-94
7.693874999999991360e+01 2.487033045794555106e-94
7.715249999999991815e+01 -2.702779732980678923e-94
7.736624999999992269e+01 -9.960036331077804122e-94
7.757999999999989882e+01 -1.862204503671385115e-93
7.779374999999990337e+01 -2.734987727383715208e-93
7.800749999999990791e+01 -3.410109859234153192e-93
7.822124999999991246e+01 -3.625519832578433226e-93
7.843499999999991701e+01 -3.093877803974211506e-93
7.864874999999992156e+01 -1.557406294253183254e-93
7.886249999999989768e+01 1.136627875270494492e-93
7.907624999999990223e+01 4.947157624184338952e-93
7.928999999999990678e+01 9.551360266047911093e-93
7.950374999999991132e+01 1.427831993052619456e-92
7.971749999999991587e+01 1.809034966338057835e-92
7.993124999999992042e+01 1.963978875520123010e-92
8.014499999999989654e+01 1.742534552588958450e-92
8.035874999999990109e+01 1.006099653341849033e-92
8.057249999999990564e+01 -3.348905896253208042e-93
8.078624999999991019e+01 -2.276189819889302175e-92
8.099999999999991473e+01 -4.674332334604739273e-92
8.121374999999991928e+01 -7.210558628874722503e-92
8.142749999999989541e+01 -9.376737782632964300e-92
8.164124999999989996e+01 -1.049709213844702659e-91
8.185499999999990450e+01 -9.798135902338256547e-92
8.206874999999990905e+01 -6.534429936411757251e-92
8.228249999999991360e+01 -1.689966316456196114e-93
8.249624999999991815e+01 9.405381940466152695e-92
8.270999999999989427e+01 2.163327343498264431e-91
8.292374999999989882e+01 3.509777150011588684e-91
8.313749999999990337e+01 4.741547173613774658e-91
8.335124999999990791e+01 5.529267802127558498e-91
8.356499999999991246e+01 5.480703446121534568e-91
8.377874999999991701e+01 4.196032650113105196e-91
8.399249999999989313e+01 1.351153419638672418e-91
8.420624999999989768e+01 -3.195616991458515947e-91
8.441999999999990223e+01 -9.285178380039762704e-91
8.463374999999990678e+01 -1.634724190454722882e-90
8.484749999999991132e+01 -2.332492170869416876e-90
8.506124999999991587e+01 -2.866658633236630036e-90
8.527499999999989200e+01 -3.041823319413464040e-90
8.548874999999989654e+01 -2.644435551729580049e-90
8.570249999999990109e+01 -1.479194227284759418e-90
8.591624999999990564e+01 5.810056494084862826e-91
8.612999999999991019e+01 3.535440097629742182e-90
8.634374999999991473e+01 7.193841011843466474e-90
8.655749999999989086e+01 1.112417260450694696e-89
8.677124999999989541e+01 1.462501829423623787e-89
8.698499999999989996e+01 1.673995672788575446e-89
8.719874999999990450e+01 1.633126704021222431e-89
8.741249999999990905e+01 1.222690390566074912e-89
8.762624999999991360e+01 3.446966597651857998e-90
8.783999999999991815e+01 -1.049678557217727190e-89
8.805374999999989427e+01 -2.925250598161484880e-89
8.826749999999989882e+01 -5.127693578497959140e-89
8.848124999999990337e+01 -7.355124449349381106e-89
8.869499999999990791e+01 -9.145680277706511762e-89
8.890874999999991246e+01 -9.891982061645143294e-89
8.912249999999991701e+01 -8.893657418405227141e-89
8.933624999999989313e+01 -5.457226877335676410e-89
8.954999999999989768e+01 9.521961048309935706e-90
8.976374999999990223e+01 1.051148969011030125e-88
8.997749999999990678e+01 2.280905949564455577e-88
9.019124999999991132e+01 3.661620181067561365e-88
9.040499999999991587e+01 4.971156257332375729e-88
9.061874999999989200e+01 5.882764212187535410e-88
9.083249999999989654e+01 5.980070645288836338e-88
9.104624999999990109e+01 4.800642504169785679e-88
9.125999999999990564e+01 1.914576737683911457e-88
9.147374999999991019e+01 -2.959811606270410226e-88
9.168749999999991473e+01 -9.808648184905070782e-88
9.190124999999989086e+01 -1.815968647622080511e-87
9.211499999999989541e+01 -2.693347234190970375e-87
9.232874999999989996e+01 -3.435197149935431116e-87
9.254249999999990450e+01 -3.795989254147653727e-87
9.275624999999990905e+01 -3.481903541892285371e-87
9.296999999999991360e+01 -2.192911627612313010e-87
9.318374999999988972e+01 3.095819386920494120e-88
9.339749999999989427e+01 4.111237047146521995e-87
9.361124999999989882e+01 9.038018152521240439e-87
9.382499999999990337e+01 1.455158471603310899e-86
9.403874999999990791e+01 1.967380592428652500e-86
9.425249999999991246e+01 2.297569666880732804e-86
9.446624999999988859e+01 2.267028469589847571e-86
9.467999999999989313e+01 1.684554307916664171e-86
9.489374999999989768e+01 3.859025658315187146e-87
9.510749999999990223e+01 -1.711246045539815737e-86
9.532124999999990678e+01 -4.541756547819123829e-86
9.553499999999991132e+01 -7.827337172092242685e-86
9.574874999999988745e+01 -1.102693306500266470e-85
9.596249999999989200e+01 -1.332453830916496367e-85
9.617624999999989654e+01 -1.367820754633538946e-85
9.638999999999990109e+01 -1.095183314092276233e-85
9.660374999999990564e+01 -4.142330374199438222e-86
9.681749999999991019e+01 7.302186907676010707e-86
9.703124999999988631e+01 2.310297095841825322e-85
9.724499999999989086e+01 4.177129381888478865e-85
9.745874999999989541e+01 6.032382287278333180e-85
9.767249999999989996e+01 7.421470911947776674e-85
9.788624999999990450e+01 7.761762866337936629e-85
9.809999999999990905e+01 6.417462202965259172e-85
9.831374999999988518e+01 2.827389332695019918e-85
9.852749999999988972e+01 -3.318076065582290156e-85
9.874124999999989427e+01 -1.186890560884053930e-84
9.895499999999989882e+01 -2.201148945821907579e-84
9.916874999999990337e+01 -3.212165531322494643e-84
9.938249999999990791e+01 -3.974081300221248871e-84
9.959624999999988404e+01 -4.174513697754774636e-84
9.980999999999988859e+01 -3.476584428724187240e-84
1.000237499999998931e+02 -1.588609779293561043e-84
1.002374999999998977e+02 1.641559877896009576e-84
1.004512499999999022e+02 6.118232010476532538e-84
1.006649999999999068e+02 1.139519214198469945e-83
1.008787499999998829e+02 1.660681360937273276e-83
1.010924999999998875e+02 2.046700686866184142e-83
1.013062499999998920e+02 2.137044746285290557e-83
1.015199999999998965e+02 1.762254885637881088e-83
1.017337499999999011e+02 7.806113530266069315e-84
1.019474999999999056e+02 -8.737145192508254545e-84
1.021612499999999102e+02 -3.137113261053751471e-83
1.023749999999998863e+02 -5.768027820551163405e-83
1.025887499999998909e+02 -8.317817038041560925e-83
1.028024999999998954e+02 -1.013761002509964361e-82
1.030162499999999000e+02 -1.043707397841891318e-82
1.032299999999999045e+02 -8.406064955113252258e-83
1.034437499999999091e+02 -3.400077159491485824e-83
1.036574999999998852e+02 4.824735092975567848e-83
1.038712499999998897e+02 1.586013728506169967e-82
1.040849999999998943e+02 2.843109075098125391e-82
1.042987499999998988e+02 4.028727714402969927e-82
1.045124999999999034e+02 4.827772910324139796e-82
1.047262499999999079e+02 4.867744097298437784e-82
1.049399999999998840e+02 3.780628346026146403e-82
1.051537499999998886e+02 1.292872247472768620e-82
1.053674999999998931e+02 -2.665051959379303082e-82
1.055812499999998977e+02 -7.846679315161610475e-82
1.057949999999999022e+02 -1.360097180811212084e-81
1.060087499999999068e+02 -1.883924890164306205e-81
1.062224999999998829e+02 -2.209124525025610912e-81
1.064362499999998875e+02 -2.167796337231285440e-81
1.066499999999998920e+02 -1.601362413990263854e-81
1.068637499999998965e+02 -4.023649720113210053e-82
1.070774999999999011e+02 1.436817929599373894e-81
1.072912499999999056e+02 3.776812487675757967e-81
1.075049999999998818e+02 6.297583610516755669e-81
1.077187499999998863e+02 8.492363737574686454e-81
1.079324999999998909e+02 9.703025994155396890e-81
1.081462499999998954e+02 9.207069385821359619e-81
1.083599999999999000e+02 6.358622095395850004e-81
1.085737499999999045e+02 7.740777002042730289e-82
1.087874999999998806e+02 -7.461797823534517452e-81
1.090012499999998852e+02 -1.760898813678281773e-80
1.092149999999998897e+02 -2.815718742958910245e-80
1.094287499999998943e+02 -3.684124801856491196e-80
1.096424999999998988e+02 -4.084047850465169868e-80
1.098562499999999034e+02 -3.719487794475955416e-80
1.100699999999998795e+02 -2.343444714195884684e-80
1.102837499999998840e+02 1.634293295879127294e-81
1.104974999999998886e+02 3.710162994866503153e-80
1.107112499999998931e+02 7.926460388501435408e-80
1.109249999999998977e+02 1.212937829665496506e-79
1.111387499999999022e+02 1.534869168408073894e-79
1.113524999999998784e+02 1.642991821953794184e-79
1.115662499999998829e+02 1.422374652548974953e-79
1.117799999999998875e+02 7.854005626427467445e-80
1.119937499999998920e+02 -2.965425446360085143e-80
1.122074999999998965e+02 -1.761824209243556313e-79
1.124212499999999011e+02 -3.435259511979832818e-79
1.126349999999998772e+02 -5.021445222535156589e-79
1.128487499999998818e+02 -6.123182841845521138e-79
1.130624999999998863e+02 -6.291042152301147546e-79
1.132762499999998909e+02 -5.105328233282480797e-79
1.134899999999998954e+02 -2.284660787692931388e-79
1.137037499999999000e+02 2.193205724557106226e-79
1.139174999999998761e+02 7.981398317601432247e-79
1.141312499999998806e+02 1.429468397499457944e-78
1.143449999999998852e+02 1.991345625051438487e-78
1.145587499999998897e+02 2.328944010123147293e-78
1.147724999999998943e+02 2.276932401815995634e-78
1.149862499999998988e+02 1.693152593004266561e-78
1.151999999999998749e+02 5.003029414506760735e-79
1.154137499999998795e+02 -1.270855279415339927e-78
1.156274999999998840e+02 -3.446173056580036707e-78
1.158412499999998886e+02 -5.691946222206397027e-78
1.160549999999998931e+02 -7.529148825313161670e-78
1.162687499999998977e+02 -8.386630537058087335e-78
1.164824999999999022e+02 -7.696103954645500283e-78
1.166962499999998784e+02 -5.023106840426529638e-78
1.169099999999998829e+02 -2.174827626231927101e-79
1.171237499999998875e+02 6.443987786238864929e-78
1.173374999999998920e+02 1.415888370956451558e-77
1.175512499999998965e+02 2.158404204678066588e-77
1.177649999999999011e+02 2.693938972240041833e-77
1.179787499999998772e+02 2.825171581740630459e-77
1.181924999999998818e+02 2.373463924855666413e-77
1.184062499999998863e+02 1.226770395836268778e-77
1.186199999999998909e+02 -6.099739491855584445e-78
1.188337499999998954e+02 -2.972809017437928982e-77
1.190474999999999000e+02 -5.517985761685077488e-77
1.192612499999998761e+02 -7.735270628274336919e-77
1.194749999999998806e+02 -9.004868812946950586e-77
1.196887499999998852e+02 -8.700789858109158514e-77
1.199024999999998897e+02 -6.333547033119760984e-77
1.201162499999998943e+02 -1.713108435812066968e-77
1.203299999999998988e+02 4.898897630912908840e-77
1.205437499999998749e+02 1.268769180541840729e-76
1.207574999999998795e+02 2.027728944439928920e-76
1.209712499999998840e+02 2.585212474934351268e-76
1.211849999999998886e+02 2.742695634614717696e-76
1.213987499999998931e+02 2.325491470140660618e-76
1.216124999999998977e+02 1.232648369825175505e-76
1.218262499999998738e+02 -5.127314736701447344e-77
1.220399999999998784e+02 -2.724753184596310228e-76
1.222537499999998829e+02 -5.041220283939352334e-76
1.224674999999998875e+02 -6.947939031715482852e-76
1.226812499999998920e+02 -7.848862894910506759e-76
1.228949999999998965e+02 -7.181850135341910651e-76
1.231087499999998727e+02 -4.568481190423207507e-76
1.233224999999998772e+02 2.639036327900513755e-78
1.235362499999998818e+02 6.161286795011427571e-76
1.237499999999998863e+02 1.285399707683958048e-75
1.239637499999998909e+02 1.862885395216598155e-75
1.241774999999998954e+02 2.170576224219988667e-75
1.243912499999998715e+02 2.033740135034417390e-75
1.246049999999998761e+02 1.326617844266469543e-75
1.248187499999998806e+02 2.312389712710939286e-77
1.250324999999998852e+02 -1.758399914790247767e-75
1.252462499999998897e+02 -3.730114152106299725e-75
1.254599999999998943e+02 -5.443433656287373876e-75
1.256737499999998704e+02 -6.342722142699357851e-75